148
 Energy =   -4513.2459838290
 C    7.1076531   -6.0926477    0.0000000  0.00   -0.0000548    0.0003606   -0.0000000
 C    5.6761768   -6.0500948    0.0000000  0.00    0.0007180    0.0015362   -0.0000000
 C    7.7746963   -7.3381279    0.0000000  0.00   -0.0004874    0.0017285   -0.0000000
 C    4.9551022   -7.2613785    0.0000000  0.00    0.0005370   -0.0010275   -0.0000000
 C    7.0544023   -8.5060862    0.0000000  0.00    0.0020807   -0.0021711   -0.0000000
 C    5.6615794   -8.4702110    0.0000000  0.00    0.0014362    0.0019795   -0.0000000
 C    7.1913489   -3.6648782    0.0000000  0.00    0.0003093    0.0047495   -0.0000000
 C    5.7512784   -3.6268962    0.0000000  0.00    0.0012394   -0.0018407   -0.0000000
 C    7.8333929   -4.8989838    0.0000000  0.00    0.0012708   -0.0005365   -0.0000000
 C    4.9926916   -4.8035434    0.0000000  0.00   -0.0019668    0.0009470   -0.0000000
 C    7.2955787   -1.2307417    0.0000000  0.00   -0.0025973    0.0006710   -0.0000000
 C    5.8566941   -1.2206647    0.0000000  0.00   -0.0033956    0.0015556   -0.0000000
 C    7.9346249   -2.4668836    0.0000000  0.00   -0.0014243    0.0022394   -0.0000000
 C    5.0826729   -2.3904274    0.0000000  0.00   -0.0009630   -0.0013029   -0.0000000
 C    7.9847413    0.0000000    0.0000000  0.00   -0.0006642   -0.0000000   -0.0000000
 C    5.1764465    0.0000000    0.0000000  0.00   -0.0044085   -0.0000000   -0.0000000
 C    3.5551965   -4.7343117    0.0000000  0.00    0.0000101   -0.0000819   -0.0000000
 C    2.8300116   -5.9461693    0.0000000  0.00   -0.0015267   -0.0015644   -0.0000000
 C    3.5107246   -7.1939899    0.0000000  0.00   -0.0011581    0.0004757   -0.0000000
 C    3.6425594   -2.3393119    0.0000000  0.00    0.0016148   -0.0007949   -0.0000000
 C    2.8603627   -3.4964088    0.0000000  0.00   -0.0003340   -0.0008705   -0.0000000
 C    3.7913167    0.0000000    0.0000000  0.00    0.0019236   -0.0000000   -0.0000000
 C    2.9849491   -1.1171824    0.0000000  0.00   -0.0039807   -0.0025969   -0.0000000
 C    1.4120512   -5.8579224    0.0000000  0.00   -0.0011809    0.0013706   -0.0000000
 C    0.7110152   -7.0804611    0.0000000  0.00   -0.0003545    0.0006020   -0.0000000
 C    2.7597209   -8.3717153    0.0000000  0.00    0.0005089    0.0002259   -0.0000000
 C    1.4046551   -8.3073252    0.0000000  0.00   -0.0016068    0.0003415   -0.0000000
 C    1.4149503   -3.3282874    0.0000000  0.00    0.0012451    0.0005529   -0.0000000
 C    0.7066852   -4.5796189    0.0000000  0.00   -0.0007609    0.0011908   -0.0000000
 C    1.5810236   -0.7691125    0.0000000  0.00   -0.0001575    0.0001443   -0.0000000
 C    0.7256948   -2.0021379    0.0000000  0.00    0.0001471    0.0009496   -0.0000000
 H    8.8649711   -7.3494507    0.0000000  0.00    0.0009467   -0.0011624   -0.0000000
 H    7.5624494   -9.4702458    0.0000000  0.00    0.0018580   -0.0011097   -0.0000000
 H    5.1367467   -9.4227362    0.0000000  0.00    0.0003422    0.0007321   -0.0000000
 H    8.9207526   -4.9422419    0.0000000  0.00   -0.0020954    0.0015037   -0.0000000
 H    9.0185522   -2.5227969    0.0000000  0.00   -0.0010772    0.0009797   -0.0000000
 H    9.0690580    0.0000000    0.0000000  0.00   -0.0012289   -0.0000000   -0.0000000
 H    3.2390747   -9.3421046    0.0000000  0.00   -0.0005040    0.0005232   -0.0000000
 H    0.8672519   -9.2401057    0.0000000  0.00   -0.0001898    0.0006738   -0.0000000
 C   -7.1076531    6.0926477    0.0000000  0.00    0.0000548   -0.0003606   -0.0000000
 C   -5.6761768    6.0500948    0.0000000  0.00   -0.0007180   -0.0015362   -0.0000000
 C   -7.7746963    7.3381279    0.0000000  0.00    0.0004874   -0.0017285   -0.0000000
 C   -4.9551022    7.2613785    0.0000000  0.00   -0.0005370    0.0010275   -0.0000000
 C   -7.0544023    8.5060862    0.0000000  0.00   -0.0020807    0.0021711   -0.0000000
 C   -5.6615794    8.4702110    0.0000000  0.00   -0.0014362   -0.0019795   -0.0000000
 C   -7.1913489    3.6648782    0.0000000  0.00   -0.0003093   -0.0047495   -0.0000000
 C   -5.7512784    3.6268962    0.0000000  0.00   -0.0012394    0.0018407   -0.0000000
 C   -7.8333929    4.8989838    0.0000000  0.00   -0.0012708    0.0005365   -0.0000000
 C   -4.9926916    4.8035434    0.0000000  0.00    0.0019668   -0.0009470   -0.0000000
 C   -7.2955787    1.2307417    0.0000000  0.00    0.0025973   -0.0006710   -0.0000000
 C   -5.8566941    1.2206647    0.0000000  0.00    0.0033956   -0.0015556   -0.0000000
 C   -7.9346249    2.4668836    0.0000000  0.00    0.0014243   -0.0022394   -0.0000000
 C   -5.0826729    2.3904274    0.0000000  0.00    0.0009630    0.0013029   -0.0000000
 C   -7.9847413    0.0000000    0.0000000  0.00    0.0006642   -0.0000000   -0.0000000
 C   -5.1764465    0.0000000    0.0000000  0.00    0.0044085   -0.0000000   -0.0000000
 C   -3.5551965    4.7343117    0.0000000  0.00   -0.0000101    0.0000819   -0.0000000
 C   -2.8300116    5.9461693    0.0000000  0.00    0.0015267    0.0015644   -0.0000000
 C   -3.5107246    7.1939899    0.0000000  0.00    0.0011581   -0.0004757   -0.0000000
 C   -3.6425594    2.3393119    0.0000000  0.00   -0.0016148    0.0007949   -0.0000000
 C   -2.8603627    3.4964088    0.0000000  0.00    0.0003340    0.0008705   -0.0000000
 C   -3.7913167    0.0000000    0.0000000  0.00   -0.0019236   -0.0000000   -0.0000000
 C   -2.9849491    1.1171824    0.0000000  0.00    0.0039807    0.0025969   -0.0000000
 C   -1.4120512    5.8579224    0.0000000  0.00    0.0011809   -0.0013706   -0.0000000
 C   -0.7110152    7.0804611    0.0000000  0.00    0.0003545   -0.0006020   -0.0000000
 C   -2.7597209    8.3717153    0.0000000  0.00   -0.0005089   -0.0002259   -0.0000000
 C   -1.4046551    8.3073252    0.0000000  0.00    0.0016068   -0.0003415   -0.0000000
 C   -1.4149503    3.3282874    0.0000000  0.00   -0.0012451   -0.0005529   -0.0000000
 C   -0.7066852    4.5796189    0.0000000  0.00    0.0007609   -0.0011908   -0.0000000
 C   -1.5810236    0.7691125    0.0000000  0.00    0.0001575   -0.0001443   -0.0000000
 C   -0.7256948    2.0021379    0.0000000  0.00   -0.0001471   -0.0009496   -0.0000000
 H   -8.8649711    7.3494507    0.0000000  0.00   -0.0009467    0.0011624   -0.0000000
 H   -7.5624494    9.4702458    0.0000000  0.00   -0.0018580    0.0011097   -0.0000000
 H   -5.1367467    9.4227362    0.0000000  0.00   -0.0003422   -0.0007321   -0.0000000
 H   -8.9207526    4.9422419    0.0000000  0.00    0.0020954   -0.0015037   -0.0000000
 H   -9.0185522    2.5227969    0.0000000  0.00    0.0010772   -0.0009797   -0.0000000
 H   -9.0690580    0.0000000    0.0000000  0.00    0.0012289   -0.0000000   -0.0000000
 H   -3.2390747    9.3421046    0.0000000  0.00    0.0005040   -0.0005232   -0.0000000
 H   -0.8672519    9.2401057    0.0000000  0.00    0.0001898   -0.0006738   -0.0000000
 C    7.1076531    6.0926477    0.0000000  0.00   -0.0000548   -0.0003606   -0.0000000
 C    5.6761768    6.0500948    0.0000000  0.00    0.0007180   -0.0015362   -0.0000000
 C    7.7746963    7.3381279    0.0000000  0.00   -0.0004874   -0.0017285   -0.0000000
 C    4.9551022    7.2613785    0.0000000  0.00    0.0005370    0.0010275   -0.0000000
 C    7.0544023    8.5060862    0.0000000  0.00    0.0020807    0.0021711   -0.0000000
 C    5.6615794    8.4702110    0.0000000  0.00    0.0014362   -0.0019795   -0.0000000
 C    7.1913489    3.6648782    0.0000000  0.00    0.0003093   -0.0047495   -0.0000000
 C    5.7512784    3.6268962    0.0000000  0.00    0.0012394    0.0018407   -0.0000000
 C    7.8333929    4.8989838    0.0000000  0.00    0.0012708    0.0005365   -0.0000000
 C    4.9926916    4.8035434    0.0000000  0.00   -0.0019668   -0.0009470   -0.0000000
 C    7.2955787    1.2307417    0.0000000  0.00   -0.0025973   -0.0006710   -0.0000000
 C    5.8566941    1.2206647    0.0000000  0.00   -0.0033956   -0.0015556   -0.0000000
 C    7.9346249    2.4668836    0.0000000  0.00   -0.0014243   -0.0022394   -0.0000000
 C    5.0826729    2.3904274    0.0000000  0.00   -0.0009630    0.0013029   -0.0000000
 C    3.5551965    4.7343117    0.0000000  0.00    0.0000101    0.0000819   -0.0000000
 C    2.8300116    5.9461693    0.0000000  0.00   -0.0015267    0.0015644   -0.0000000
 C    3.5107246    7.1939899    0.0000000  0.00   -0.0011581   -0.0004757   -0.0000000
 C    3.6425594    2.3393119    0.0000000  0.00    0.0016148    0.0007949   -0.0000000
 C    2.8603627    3.4964088    0.0000000  0.00   -0.0003340    0.0008705   -0.0000000
 C    2.9849491    1.1171824    0.0000000  0.00   -0.0039807    0.0025969   -0.0000000
 C    1.4120512    5.8579224    0.0000000  0.00   -0.0011809   -0.0013706   -0.0000000
 C    0.7110152    7.0804611    0.0000000  0.00   -0.0003545   -0.0006020   -0.0000000
 C    2.7597209    8.3717153    0.0000000  0.00    0.0005089   -0.0002259   -0.0000000
 C    1.4046551    8.3073252    0.0000000  0.00   -0.0016068   -0.0003415   -0.0000000
 C    1.4149503    3.3282874    0.0000000  0.00    0.0012451   -0.0005529   -0.0000000
 C    0.7066852    4.5796189    0.0000000  0.00   -0.0007609   -0.0011908   -0.0000000
 C    1.5810236    0.7691125    0.0000000  0.00   -0.0001575   -0.0001443   -0.0000000
 C    0.7256948    2.0021379    0.0000000  0.00    0.0001471   -0.0009496   -0.0000000
 H    8.8649711    7.3494507    0.0000000  0.00    0.0009467    0.0011624   -0.0000000
 H    7.5624494    9.4702458    0.0000000  0.00    0.0018580    0.0011097   -0.0000000
 H    5.1367467    9.4227362    0.0000000  0.00    0.0003422   -0.0007321   -0.0000000
 H    8.9207526    4.9422419    0.0000000  0.00   -0.0020954   -0.0015037   -0.0000000
 H    9.0185522    2.5227969    0.0000000  0.00   -0.0010772   -0.0009797   -0.0000000
 H    3.2390747    9.3421046    0.0000000  0.00   -0.0005040   -0.0005232   -0.0000000
 H    0.8672519    9.2401057    0.0000000  0.00   -0.0001898   -0.0006738   -0.0000000
 C   -7.1076531   -6.0926477    0.0000000  0.00    0.0000548    0.0003606   -0.0000000
 C   -5.6761768   -6.0500948    0.0000000  0.00   -0.0007180    0.0015362   -0.0000000
 C   -7.7746963   -7.3381279    0.0000000  0.00    0.0004874    0.0017285   -0.0000000
 C   -4.9551022   -7.2613785    0.0000000  0.00   -0.0005370   -0.0010275   -0.0000000
 C   -7.0544023   -8.5060862    0.0000000  0.00   -0.0020807   -0.0021711   -0.0000000
 C   -5.6615794   -8.4702110    0.0000000  0.00   -0.0014362    0.0019795   -0.0000000
 C   -7.1913489   -3.6648782    0.0000000  0.00   -0.0003093    0.0047495   -0.0000000
 C   -5.7512784   -3.6268962    0.0000000  0.00   -0.0012394   -0.0018407   -0.0000000
 C   -7.8333929   -4.8989838    0.0000000  0.00   -0.0012708   -0.0005365   -0.0000000
 C   -4.9926916   -4.8035434    0.0000000  0.00    0.0019668    0.0009470   -0.0000000
 C   -7.2955787   -1.2307417    0.0000000  0.00    0.0025973    0.0006710   -0.0000000
 C   -5.8566941   -1.2206647    0.0000000  0.00    0.0033956    0.0015556   -0.0000000
 C   -7.9346249   -2.4668836    0.0000000  0.00    0.0014243    0.0022394   -0.0000000
 C   -5.0826729   -2.3904274    0.0000000  0.00    0.0009630   -0.0013029   -0.0000000
 C   -3.5551965   -4.7343117    0.0000000  0.00   -0.0000101   -0.0000819   -0.0000000
 C   -2.8300116   -5.9461693    0.0000000  0.00    0.0015267   -0.0015644   -0.0000000
 C   -3.5107246   -7.1939899    0.0000000  0.00    0.0011581    0.0004757   -0.0000000
 C   -3.6425594   -2.3393119    0.0000000  0.00   -0.0016148   -0.0007949   -0.0000000
 C   -2.8603627   -3.4964088    0.0000000  0.00    0.0003340   -0.0008705   -0.0000000
 C   -2.9849491   -1.1171824    0.0000000  0.00    0.0039807   -0.0025969   -0.0000000
 C   -1.4120512   -5.8579224    0.0000000  0.00    0.0011809    0.0013706   -0.0000000
 C   -0.7110152   -7.0804611    0.0000000  0.00    0.0003545    0.0006020   -0.0000000
 C   -2.7597209   -8.3717153    0.0000000  0.00   -0.0005089    0.0002259   -0.0000000
 C   -1.4046551   -8.3073252    0.0000000  0.00    0.0016068    0.0003415   -0.0000000
 C   -1.4149503   -3.3282874    0.0000000  0.00   -0.0012451    0.0005529   -0.0000000
 C   -0.7066852   -4.5796189    0.0000000  0.00    0.0007609    0.0011908   -0.0000000
 C   -1.5810236   -0.7691125    0.0000000  0.00    0.0001575    0.0001443   -0.0000000
 C   -0.7256948   -2.0021379    0.0000000  0.00   -0.0001471    0.0009496   -0.0000000
 H   -8.8649711   -7.3494507    0.0000000  0.00   -0.0009467   -0.0011624   -0.0000000
 H   -7.5624494   -9.4702458    0.0000000  0.00   -0.0018580   -0.0011097   -0.0000000
 H   -5.1367467   -9.4227362    0.0000000  0.00   -0.0003422    0.0007321   -0.0000000
 H   -8.9207526   -4.9422419    0.0000000  0.00    0.0020954    0.0015037   -0.0000000
 H   -9.0185522   -2.5227969    0.0000000  0.00    0.0010772    0.0009797   -0.0000000
 H   -3.2390747   -9.3421046    0.0000000  0.00    0.0005040    0.0005232   -0.0000000
 H   -0.8672519   -9.2401057    0.0000000  0.00    0.0001898    0.0006738   -0.0000000
