148
 Energy =   -4513.2201981910
 C    7.1172028   -6.1044888    0.0000000  0.00   -0.0002331    0.0004568   -0.0000000
 C    5.6826015   -6.0673044    0.0000000  0.00    0.0007369    0.0009521   -0.0000000
 C    7.7789583   -7.3523328    0.0000000  0.00    0.0004941    0.0005156   -0.0000000
 C    4.9595351   -7.2754111    0.0000000  0.00    0.0002039    0.0004049   -0.0000000
 C    7.0543459   -8.5230606    0.0000000  0.00    0.0005573    0.0002328   -0.0000000
 C    5.6640185   -8.4913542    0.0000000  0.00    0.0003621    0.0003801   -0.0000000
 C    7.1944003   -3.6671361    0.0000000  0.00   -0.0004237   -0.0000724   -0.0000000
 C    5.7508896   -3.6348688    0.0000000  0.00    0.0009094    0.0007387   -0.0000000
 C    7.8379773   -4.9071422    0.0000000  0.00   -0.0004343   -0.0005314   -0.0000000
 C    4.9966100   -4.8182507    0.0000000  0.00   -0.0014052   -0.0006162   -0.0000000
 C    7.2762506   -1.2295804    0.0000000  0.00   -0.0000580    0.0000735   -0.0000000
 C    5.8399488   -1.2220670    0.0000000  0.00    0.0002851   -0.0000926   -0.0000000
 C    7.9225188   -2.4692397    0.0000000  0.00    0.0000343   -0.0001023   -0.0000000
 C    5.0777179   -2.4035686    0.0000000  0.00   -0.0007661   -0.0000377   -0.0000000
 C    7.9568174    0.0000000    0.0000000  0.00   -0.0006458   -0.0000000   -0.0000000
 C    5.1605779    0.0000000    0.0000000  0.00    0.0003029   -0.0000000   -0.0000000
 C    3.5659157   -4.7559629    0.0000000  0.00    0.0009672   -0.0001116   -0.0000000
 C    2.8368798   -5.9571141    0.0000000  0.00    0.0005376    0.0003320   -0.0000000
 C    3.5166591   -7.2108656    0.0000000  0.00    0.0007508   -0.0005457   -0.0000000
 C    3.6422905   -2.3587651    0.0000000  0.00    0.0002974   -0.0004502   -0.0000000
 C    2.8648869   -3.5087436    0.0000000  0.00   -0.0001767    0.0003014   -0.0000000
 C    3.7694338    0.0000000    0.0000000  0.00   -0.0014759   -0.0000000   -0.0000000
 C    2.9776931   -1.1313547    0.0000000  0.00    0.0007572    0.0001940   -0.0000000
 C    1.4153139   -5.8683757    0.0000000  0.00   -0.0002416    0.0001944   -0.0000000
 C    0.7120999   -7.0906405    0.0000000  0.00   -0.0005888    0.0003900   -0.0000000
 C    2.7588176   -8.3809059    0.0000000  0.00    0.0003010   -0.0001208   -0.0000000
 C    1.4022829   -8.3161608    0.0000000  0.00    0.0000780   -0.0007866   -0.0000000
 C    1.4266397   -3.3543238    0.0000000  0.00    0.0008019    0.0004256   -0.0000000
 C    0.7122609   -4.5913062    0.0000000  0.00   -0.0000298   -0.0001243   -0.0000000
 C    1.5839132   -0.8342789    0.0000000  0.00    0.0003302   -0.0001419   -0.0000000
 C    0.7438796   -2.0082797    0.0000000  0.00   -0.0006880   -0.0006793   -0.0000000
 H    8.8650852   -7.3703703    0.0000000  0.00    0.0001032    0.0010321   -0.0000000
 H    7.5637553   -9.4828698    0.0000000  0.00    0.0002636    0.0005491   -0.0000000
 H    5.1325230   -9.4380064    0.0000000  0.00    0.0003525    0.0008683   -0.0000000
 H    8.9230169   -4.9433364    0.0000000  0.00   -0.0009190    0.0002534   -0.0000000
 H    9.0063790   -2.5119608    0.0000000  0.00   -0.0002486    0.0001183   -0.0000000
 H    9.0414303    0.0000000    0.0000000  0.00    0.0007877   -0.0000000   -0.0000000
 H    3.2240796   -9.3637267    0.0000000  0.00    0.0000566   -0.0005909   -0.0000000
 H    0.8705106   -9.2633971    0.0000000  0.00   -0.0005049   -0.0004373   -0.0000000
 C   -7.1172028    6.1044888    0.0000000  0.00    0.0002331   -0.0004568   -0.0000000
 C   -5.6826015    6.0673044    0.0000000  0.00   -0.0007369   -0.0009521   -0.0000000
 C   -7.7789583    7.3523328    0.0000000  0.00   -0.0004941   -0.0005156   -0.0000000
 C   -4.9595351    7.2754111    0.0000000  0.00   -0.0002039   -0.0004049   -0.0000000
 C   -7.0543459    8.5230606    0.0000000  0.00   -0.0005573   -0.0002328   -0.0000000
 C   -5.6640185    8.4913542    0.0000000  0.00   -0.0003621   -0.0003801   -0.0000000
 C   -7.1944003    3.6671361    0.0000000  0.00    0.0004237    0.0000724   -0.0000000
 C   -5.7508896    3.6348688    0.0000000  0.00   -0.0009094   -0.0007387   -0.0000000
 C   -7.8379773    4.9071422    0.0000000  0.00    0.0004343    0.0005314   -0.0000000
 C   -4.9966100    4.8182507    0.0000000  0.00    0.0014052    0.0006162   -0.0000000
 C   -7.2762506    1.2295804    0.0000000  0.00    0.0000580   -0.0000735   -0.0000000
 C   -5.8399488    1.2220670    0.0000000  0.00   -0.0002851    0.0000926   -0.0000000
 C   -7.9225188    2.4692397    0.0000000  0.00   -0.0000343    0.0001023   -0.0000000
 C   -5.0777179    2.4035686    0.0000000  0.00    0.0007661    0.0000377   -0.0000000
 C   -7.9568174    0.0000000    0.0000000  0.00    0.0006458   -0.0000000   -0.0000000
 C   -5.1605779    0.0000000    0.0000000  0.00   -0.0003029   -0.0000000   -0.0000000
 C   -3.5659157    4.7559629    0.0000000  0.00   -0.0009672    0.0001116   -0.0000000
 C   -2.8368798    5.9571141    0.0000000  0.00   -0.0005376   -0.0003320   -0.0000000
 C   -3.5166591    7.2108656    0.0000000  0.00   -0.0007508    0.0005457   -0.0000000
 C   -3.6422905    2.3587651    0.0000000  0.00   -0.0002974    0.0004502   -0.0000000
 C   -2.8648869    3.5087436    0.0000000  0.00    0.0001767   -0.0003014   -0.0000000
 C   -3.7694338    0.0000000    0.0000000  0.00    0.0014759   -0.0000000   -0.0000000
 C   -2.9776931    1.1313547    0.0000000  0.00   -0.0007572   -0.0001940   -0.0000000
 C   -1.4153139    5.8683757    0.0000000  0.00    0.0002416   -0.0001944   -0.0000000
 C   -0.7120999    7.0906405    0.0000000  0.00    0.0005888   -0.0003900   -0.0000000
 C   -2.7588176    8.3809059    0.0000000  0.00   -0.0003010    0.0001208   -0.0000000
 C   -1.4022829    8.3161608    0.0000000  0.00   -0.0000780    0.0007866   -0.0000000
 C   -1.4266397    3.3543238    0.0000000  0.00   -0.0008019   -0.0004256   -0.0000000
 C   -0.7122609    4.5913062    0.0000000  0.00    0.0000298    0.0001243   -0.0000000
 C   -1.5839132    0.8342789    0.0000000  0.00   -0.0003302    0.0001419   -0.0000000
 C   -0.7438796    2.0082797    0.0000000  0.00    0.0006880    0.0006793   -0.0000000
 H   -8.8650852    7.3703703    0.0000000  0.00   -0.0001032   -0.0010321   -0.0000000
 H   -7.5637553    9.4828698    0.0000000  0.00   -0.0002636   -0.0005491   -0.0000000
 H   -5.1325230    9.4380064    0.0000000  0.00   -0.0003525   -0.0008683   -0.0000000
 H   -8.9230169    4.9433364    0.0000000  0.00    0.0009190   -0.0002534   -0.0000000
 H   -9.0063790    2.5119608    0.0000000  0.00    0.0002486   -0.0001183   -0.0000000
 H   -9.0414303    0.0000000    0.0000000  0.00   -0.0007877   -0.0000000   -0.0000000
 H   -3.2240796    9.3637267    0.0000000  0.00   -0.0000566    0.0005909   -0.0000000
 H   -0.8705106    9.2633971    0.0000000  0.00    0.0005049    0.0004373   -0.0000000
 C    7.1172028    6.1044888    0.0000000  0.00   -0.0002331   -0.0004568   -0.0000000
 C    5.6826015    6.0673044    0.0000000  0.00    0.0007369   -0.0009521   -0.0000000
 C    7.7789583    7.3523328    0.0000000  0.00    0.0004941   -0.0005156   -0.0000000
 C    4.9595351    7.2754111    0.0000000  0.00    0.0002039   -0.0004049   -0.0000000
 C    7.0543459    8.5230606    0.0000000  0.00    0.0005573   -0.0002328   -0.0000000
 C    5.6640185    8.4913542    0.0000000  0.00    0.0003621   -0.0003801   -0.0000000
 C    7.1944003    3.6671361    0.0000000  0.00   -0.0004237    0.0000724   -0.0000000
 C    5.7508896    3.6348688    0.0000000  0.00    0.0009094   -0.0007387   -0.0000000
 C    7.8379773    4.9071422    0.0000000  0.00   -0.0004343    0.0005314   -0.0000000
 C    4.9966100    4.8182507    0.0000000  0.00   -0.0014052    0.0006162   -0.0000000
 C    7.2762506    1.2295804    0.0000000  0.00   -0.0000580   -0.0000735   -0.0000000
 C    5.8399488    1.2220670    0.0000000  0.00    0.0002851    0.0000926   -0.0000000
 C    7.9225188    2.4692397    0.0000000  0.00    0.0000343    0.0001023   -0.0000000
 C    5.0777179    2.4035686    0.0000000  0.00   -0.0007661    0.0000377   -0.0000000
 C    3.5659157    4.7559629    0.0000000  0.00    0.0009672    0.0001116   -0.0000000
 C    2.8368798    5.9571141    0.0000000  0.00    0.0005376   -0.0003320   -0.0000000
 C    3.5166591    7.2108656    0.0000000  0.00    0.0007508    0.0005457   -0.0000000
 C    3.6422905    2.3587651    0.0000000  0.00    0.0002974    0.0004502   -0.0000000
 C    2.8648869    3.5087436    0.0000000  0.00   -0.0001767   -0.0003014   -0.0000000
 C    2.9776931    1.1313547    0.0000000  0.00    0.0007572   -0.0001940   -0.0000000
 C    1.4153139    5.8683757    0.0000000  0.00   -0.0002416   -0.0001944   -0.0000000
 C    0.7120999    7.0906405    0.0000000  0.00   -0.0005888   -0.0003900   -0.0000000
 C    2.7588176    8.3809059    0.0000000  0.00    0.0003010    0.0001208   -0.0000000
 C    1.4022829    8.3161608    0.0000000  0.00    0.0000780    0.0007866   -0.0000000
 C    1.4266397    3.3543238    0.0000000  0.00    0.0008019   -0.0004256   -0.0000000
 C    0.7122609    4.5913062    0.0000000  0.00   -0.0000298    0.0001243   -0.0000000
 C    1.5839132    0.8342789    0.0000000  0.00    0.0003302    0.0001419   -0.0000000
 C    0.7438796    2.0082797    0.0000000  0.00   -0.0006880    0.0006793   -0.0000000
 H    8.8650852    7.3703703    0.0000000  0.00    0.0001032   -0.0010321   -0.0000000
 H    7.5637553    9.4828698    0.0000000  0.00    0.0002636   -0.0005491   -0.0000000
 H    5.1325230    9.4380064    0.0000000  0.00    0.0003525   -0.0008683   -0.0000000
 H    8.9230169    4.9433364    0.0000000  0.00   -0.0009190   -0.0002534   -0.0000000
 H    9.0063790    2.5119608    0.0000000  0.00   -0.0002486   -0.0001183   -0.0000000
 H    3.2240796    9.3637267    0.0000000  0.00    0.0000566    0.0005909   -0.0000000
 H    0.8705106    9.2633971    0.0000000  0.00   -0.0005049    0.0004373   -0.0000000
 C   -7.1172028   -6.1044888    0.0000000  0.00    0.0002331    0.0004568   -0.0000000
 C   -5.6826015   -6.0673044    0.0000000  0.00   -0.0007369    0.0009521   -0.0000000
 C   -7.7789583   -7.3523328    0.0000000  0.00   -0.0004941    0.0005156   -0.0000000
 C   -4.9595351   -7.2754111    0.0000000  0.00   -0.0002039    0.0004049   -0.0000000
 C   -7.0543459   -8.5230606    0.0000000  0.00   -0.0005573    0.0002328   -0.0000000
 C   -5.6640185   -8.4913542    0.0000000  0.00   -0.0003621    0.0003801   -0.0000000
 C   -7.1944003   -3.6671361    0.0000000  0.00    0.0004237   -0.0000724   -0.0000000
 C   -5.7508896   -3.6348688    0.0000000  0.00   -0.0009094    0.0007387   -0.0000000
 C   -7.8379773   -4.9071422    0.0000000  0.00    0.0004343   -0.0005314   -0.0000000
 C   -4.9966100   -4.8182507    0.0000000  0.00    0.0014052   -0.0006162   -0.0000000
 C   -7.2762506   -1.2295804    0.0000000  0.00    0.0000580    0.0000735   -0.0000000
 C   -5.8399488   -1.2220670    0.0000000  0.00   -0.0002851   -0.0000926   -0.0000000
 C   -7.9225188   -2.4692397    0.0000000  0.00   -0.0000343   -0.0001023   -0.0000000
 C   -5.0777179   -2.4035686    0.0000000  0.00    0.0007661   -0.0000377   -0.0000000
 C   -3.5659157   -4.7559629    0.0000000  0.00   -0.0009672   -0.0001116   -0.0000000
 C   -2.8368798   -5.9571141    0.0000000  0.00   -0.0005376    0.0003320   -0.0000000
 C   -3.5166591   -7.2108656    0.0000000  0.00   -0.0007508   -0.0005457   -0.0000000
 C   -3.6422905   -2.3587651    0.0000000  0.00   -0.0002974   -0.0004502   -0.0000000
 C   -2.8648869   -3.5087436    0.0000000  0.00    0.0001767    0.0003014   -0.0000000
 C   -2.9776931   -1.1313547    0.0000000  0.00   -0.0007572    0.0001940   -0.0000000
 C   -1.4153139   -5.8683757    0.0000000  0.00    0.0002416    0.0001944   -0.0000000
 C   -0.7120999   -7.0906405    0.0000000  0.00    0.0005888    0.0003900   -0.0000000
 C   -2.7588176   -8.3809059    0.0000000  0.00   -0.0003010   -0.0001208   -0.0000000
 C   -1.4022829   -8.3161608    0.0000000  0.00   -0.0000780   -0.0007866   -0.0000000
 C   -1.4266397   -3.3543238    0.0000000  0.00   -0.0008019    0.0004256   -0.0000000
 C   -0.7122609   -4.5913062    0.0000000  0.00    0.0000298   -0.0001243   -0.0000000
 C   -1.5839132   -0.8342789    0.0000000  0.00   -0.0003302   -0.0001419   -0.0000000
 C   -0.7438796   -2.0082797    0.0000000  0.00    0.0006880   -0.0006793   -0.0000000
 H   -8.8650852   -7.3703703    0.0000000  0.00   -0.0001032    0.0010321   -0.0000000
 H   -7.5637553   -9.4828698    0.0000000  0.00   -0.0002636    0.0005491   -0.0000000
 H   -5.1325230   -9.4380064    0.0000000  0.00   -0.0003525    0.0008683   -0.0000000
 H   -8.9230169   -4.9433364    0.0000000  0.00    0.0009190    0.0002534   -0.0000000
 H   -9.0063790   -2.5119608    0.0000000  0.00    0.0002486    0.0001183   -0.0000000
 H   -3.2240796   -9.3637267    0.0000000  0.00   -0.0000566   -0.0005909   -0.0000000
 H   -0.8705106   -9.2633971    0.0000000  0.00    0.0005049   -0.0004373   -0.0000000
