148
 Energy =   -4513.0612053020
 C    7.1188468   -6.0824291    0.0000000  0.00    0.0007516    0.0004991   -0.0000000
 C    5.6839623   -6.0435462    0.0000000  0.00    0.0009255   -0.0015324   -0.0000000
 C    7.7889715   -7.3273763    0.0000000  0.00    0.0022479    0.0004664   -0.0000000
 C    4.9630081   -7.2540671    0.0000000  0.00   -0.0008869    0.0000964   -0.0000000
 C    7.0679820   -8.4950173    0.0000000  0.00    0.0013486   -0.0007146   -0.0000000
 C    5.6736964   -8.4609037    0.0000000  0.00    0.0009171   -0.0020288   -0.0000000
 C    7.1937233   -3.6559937    0.0000000  0.00    0.0001637    0.0001675   -0.0000000
 C    5.7509298   -3.6211571    0.0000000  0.00    0.0013164   -0.0006980   -0.0000000
 C    7.8432407   -4.8916098    0.0000000  0.00    0.0002876    0.0010060   -0.0000000
 C    4.9976235   -4.7991420    0.0000000  0.00   -0.0012310   -0.0021341   -0.0000000
 C    7.2885604   -1.2264018    0.0000000  0.00   -0.0008735    0.0021192   -0.0000000
 C    5.8498920   -1.2171246    0.0000000  0.00   -0.0006226   -0.0009073   -0.0000000
 C    7.9338711   -2.4658489    0.0000000  0.00   -0.0000401   -0.0022514   -0.0000000
 C    5.0803384   -2.3901942    0.0000000  0.00   -0.0002169   -0.0004661   -0.0000000
 C    7.9764071    0.0000000    0.0000000  0.00   -0.0011306   -0.0000000   -0.0000000
 C    5.1703042    0.0000000    0.0000000  0.00   -0.0016666   -0.0000000   -0.0000000
 C    3.5603445   -4.7360471    0.0000000  0.00    0.0009776    0.0009417   -0.0000000
 C    2.8349442   -5.9420939    0.0000000  0.00    0.0016236   -0.0005000   -0.0000000
 C    3.5159641   -7.1936607    0.0000000  0.00    0.0015169    0.0016896   -0.0000000
 C    3.6422311   -2.3437775    0.0000000  0.00    0.0024030   -0.0012127   -0.0000000
 C    2.8634906   -3.4969178    0.0000000  0.00    0.0015605   -0.0010636   -0.0000000
 C    3.7801386    0.0000000    0.0000000  0.00    0.0021663   -0.0000000   -0.0000000
 C    2.9812438   -1.1211847    0.0000000  0.00   -0.0021587    0.0019189   -0.0000000
 C    1.4153640   -5.8527116    0.0000000  0.00   -0.0013909   -0.0020931   -0.0000000
 C    0.7131392   -7.0762790    0.0000000  0.00    0.0009186   -0.0010393   -0.0000000
 C    2.7619356   -8.3638314    0.0000000  0.00    0.0008311   -0.0013489   -0.0000000
 C    1.4035604   -8.2993859    0.0000000  0.00    0.0024396   -0.0002538   -0.0000000
 C    1.4198041   -3.3343919    0.0000000  0.00   -0.0003809   -0.0009417   -0.0000000
 C    0.7116793   -4.5748015    0.0000000  0.00    0.0035679   -0.0006262   -0.0000000
 C    1.5801604   -0.7934473    0.0000000  0.00   -0.0001582   -0.0006225   -0.0000000
 C    0.7331655   -1.9967664    0.0000000  0.00    0.0018052    0.0008591   -0.0000000
 H    8.8786631   -7.3327462    0.0000000  0.00    0.0026441    0.0008442   -0.0000000
 H    7.5754340   -9.4579416    0.0000000  0.00    0.0004085   -0.0006052   -0.0000000
 H    5.1452108   -9.4121935    0.0000000  0.00   -0.0013195   -0.0008303   -0.0000000
 H    8.9360919   -4.9238761    0.0000000  0.00    0.0015679   -0.0001991   -0.0000000
 H    9.0219481   -2.5252488    0.0000000  0.00    0.0002729    0.0001703   -0.0000000
 H    9.0608848    0.0000000    0.0000000  0.00   -0.0004072   -0.0000000   -0.0000000
 H    3.2280050   -9.3479749    0.0000000  0.00   -0.0013546   -0.0010252   -0.0000000
 H    0.8729859   -9.2486425    0.0000000  0.00   -0.0001015    0.0008043   -0.0000000
 C   -7.1188468    6.0824291    0.0000000  0.00   -0.0007516   -0.0004991   -0.0000000
 C   -5.6839623    6.0435462    0.0000000  0.00   -0.0009255    0.0015324   -0.0000000
 C   -7.7889715    7.3273763    0.0000000  0.00   -0.0022479   -0.0004664   -0.0000000
 C   -4.9630081    7.2540671    0.0000000  0.00    0.0008869   -0.0000964   -0.0000000
 C   -7.0679820    8.4950173    0.0000000  0.00   -0.0013486    0.0007146   -0.0000000
 C   -5.6736964    8.4609037    0.0000000  0.00   -0.0009171    0.0020288   -0.0000000
 C   -7.1937233    3.6559937    0.0000000  0.00   -0.0001637   -0.0001675   -0.0000000
 C   -5.7509298    3.6211571    0.0000000  0.00   -0.0013164    0.0006980   -0.0000000
 C   -7.8432407    4.8916098    0.0000000  0.00   -0.0002876   -0.0010060   -0.0000000
 C   -4.9976235    4.7991420    0.0000000  0.00    0.0012310    0.0021341   -0.0000000
 C   -7.2885604    1.2264018    0.0000000  0.00    0.0008735   -0.0021192   -0.0000000
 C   -5.8498920    1.2171246    0.0000000  0.00    0.0006226    0.0009073   -0.0000000
 C   -7.9338711    2.4658489    0.0000000  0.00    0.0000401    0.0022514   -0.0000000
 C   -5.0803384    2.3901942    0.0000000  0.00    0.0002169    0.0004661   -0.0000000
 C   -7.9764071    0.0000000    0.0000000  0.00    0.0011306   -0.0000000   -0.0000000
 C   -5.1703042    0.0000000    0.0000000  0.00    0.0016666   -0.0000000   -0.0000000
 C   -3.5603445    4.7360471    0.0000000  0.00   -0.0009776   -0.0009417   -0.0000000
 C   -2.8349442    5.9420939    0.0000000  0.00   -0.0016236    0.0005000   -0.0000000
 C   -3.5159641    7.1936607    0.0000000  0.00   -0.0015169   -0.0016896   -0.0000000
 C   -3.6422311    2.3437775    0.0000000  0.00   -0.0024030    0.0012127   -0.0000000
 C   -2.8634906    3.4969178    0.0000000  0.00   -0.0015605    0.0010636   -0.0000000
 C   -3.7801386    0.0000000    0.0000000  0.00   -0.0021663   -0.0000000   -0.0000000
 C   -2.9812438    1.1211847    0.0000000  0.00    0.0021587   -0.0019189   -0.0000000
 C   -1.4153640    5.8527116    0.0000000  0.00    0.0013909    0.0020931   -0.0000000
 C   -0.7131392    7.0762790    0.0000000  0.00   -0.0009186    0.0010393   -0.0000000
 C   -2.7619356    8.3638314    0.0000000  0.00   -0.0008311    0.0013489   -0.0000000
 C   -1.4035604    8.2993859    0.0000000  0.00   -0.0024396    0.0002538   -0.0000000
 C   -1.4198041    3.3343919    0.0000000  0.00    0.0003809    0.0009417   -0.0000000
 C   -0.7116793    4.5748015    0.0000000  0.00   -0.0035679    0.0006262   -0.0000000
 C   -1.5801604    0.7934473    0.0000000  0.00    0.0001582    0.0006225   -0.0000000
 C   -0.7331655    1.9967664    0.0000000  0.00   -0.0018052   -0.0008591   -0.0000000
 H   -8.8786631    7.3327462    0.0000000  0.00   -0.0026441   -0.0008442   -0.0000000
 H   -7.5754340    9.4579416    0.0000000  0.00   -0.0004085    0.0006052   -0.0000000
 H   -5.1452108    9.4121935    0.0000000  0.00    0.0013195    0.0008303   -0.0000000
 H   -8.9360919    4.9238761    0.0000000  0.00   -0.0015679    0.0001991   -0.0000000
 H   -9.0219481    2.5252488    0.0000000  0.00   -0.0002729   -0.0001703   -0.0000000
 H   -9.0608848    0.0000000    0.0000000  0.00    0.0004072   -0.0000000   -0.0000000
 H   -3.2280050    9.3479749    0.0000000  0.00    0.0013546    0.0010252   -0.0000000
 H   -0.8729859    9.2486425    0.0000000  0.00    0.0001015   -0.0008043   -0.0000000
 C    7.1188468    6.0824291    0.0000000  0.00    0.0007516   -0.0004991   -0.0000000
 C    5.6839623    6.0435462    0.0000000  0.00    0.0009255    0.0015324   -0.0000000
 C    7.7889715    7.3273763    0.0000000  0.00    0.0022479   -0.0004664   -0.0000000
 C    4.9630081    7.2540671    0.0000000  0.00   -0.0008869   -0.0000964   -0.0000000
 C    7.0679820    8.4950173    0.0000000  0.00    0.0013486    0.0007146   -0.0000000
 C    5.6736964    8.4609037    0.0000000  0.00    0.0009171    0.0020288   -0.0000000
 C    7.1937233    3.6559937    0.0000000  0.00    0.0001637   -0.0001675   -0.0000000
 C    5.7509298    3.6211571    0.0000000  0.00    0.0013164    0.0006980   -0.0000000
 C    7.8432407    4.8916098    0.0000000  0.00    0.0002876   -0.0010060   -0.0000000
 C    4.9976235    4.7991420    0.0000000  0.00   -0.0012310    0.0021341   -0.0000000
 C    7.2885604    1.2264018    0.0000000  0.00   -0.0008735   -0.0021192   -0.0000000
 C    5.8498920    1.2171246    0.0000000  0.00   -0.0006226    0.0009073   -0.0000000
 C    7.9338711    2.4658489    0.0000000  0.00   -0.0000401    0.0022514   -0.0000000
 C    5.0803384    2.3901942    0.0000000  0.00   -0.0002169    0.0004661   -0.0000000
 C    3.5603445    4.7360471    0.0000000  0.00    0.0009776   -0.0009417   -0.0000000
 C    2.8349442    5.9420939    0.0000000  0.00    0.0016236    0.0005000   -0.0000000
 C    3.5159641    7.1936607    0.0000000  0.00    0.0015169   -0.0016896   -0.0000000
 C    3.6422311    2.3437775    0.0000000  0.00    0.0024030    0.0012127   -0.0000000
 C    2.8634906    3.4969178    0.0000000  0.00    0.0015605    0.0010636   -0.0000000
 C    2.9812438    1.1211847    0.0000000  0.00   -0.0021587   -0.0019189   -0.0000000
 C    1.4153640    5.8527116    0.0000000  0.00   -0.0013909    0.0020931   -0.0000000
 C    0.7131392    7.0762790    0.0000000  0.00    0.0009186    0.0010393   -0.0000000
 C    2.7619356    8.3638314    0.0000000  0.00    0.0008311    0.0013489   -0.0000000
 C    1.4035604    8.2993859    0.0000000  0.00    0.0024396    0.0002538   -0.0000000
 C    1.4198041    3.3343919    0.0000000  0.00   -0.0003809    0.0009417   -0.0000000
 C    0.7116793    4.5748015    0.0000000  0.00    0.0035679    0.0006262   -0.0000000
 C    1.5801604    0.7934473    0.0000000  0.00   -0.0001582    0.0006225   -0.0000000
 C    0.7331655    1.9967664    0.0000000  0.00    0.0018052   -0.0008591   -0.0000000
 H    8.8786631    7.3327462    0.0000000  0.00    0.0026441   -0.0008442   -0.0000000
 H    7.5754340    9.4579416    0.0000000  0.00    0.0004085    0.0006052   -0.0000000
 H    5.1452108    9.4121935    0.0000000  0.00   -0.0013195    0.0008303   -0.0000000
 H    8.9360919    4.9238761    0.0000000  0.00    0.0015679    0.0001991   -0.0000000
 H    9.0219481    2.5252488    0.0000000  0.00    0.0002729   -0.0001703   -0.0000000
 H    3.2280050    9.3479749    0.0000000  0.00   -0.0013546    0.0010252   -0.0000000
 H    0.8729859    9.2486425    0.0000000  0.00   -0.0001015   -0.0008043   -0.0000000
 C   -7.1188468   -6.0824291    0.0000000  0.00   -0.0007516    0.0004991   -0.0000000
 C   -5.6839623   -6.0435462    0.0000000  0.00   -0.0009255   -0.0015324   -0.0000000
 C   -7.7889715   -7.3273763    0.0000000  0.00   -0.0022479    0.0004664   -0.0000000
 C   -4.9630081   -7.2540671    0.0000000  0.00    0.0008869    0.0000964   -0.0000000
 C   -7.0679820   -8.4950173    0.0000000  0.00   -0.0013486   -0.0007146   -0.0000000
 C   -5.6736964   -8.4609037    0.0000000  0.00   -0.0009171   -0.0020288   -0.0000000
 C   -7.1937233   -3.6559937    0.0000000  0.00   -0.0001637    0.0001675   -0.0000000
 C   -5.7509298   -3.6211571    0.0000000  0.00   -0.0013164   -0.0006980   -0.0000000
 C   -7.8432407   -4.8916098    0.0000000  0.00   -0.0002876    0.0010060   -0.0000000
 C   -4.9976235   -4.7991420    0.0000000  0.00    0.0012310   -0.0021341   -0.0000000
 C   -7.2885604   -1.2264018    0.0000000  0.00    0.0008735    0.0021192   -0.0000000
 C   -5.8498920   -1.2171246    0.0000000  0.00    0.0006226   -0.0009073   -0.0000000
 C   -7.9338711   -2.4658489    0.0000000  0.00    0.0000401   -0.0022514   -0.0000000
 C   -5.0803384   -2.3901942    0.0000000  0.00    0.0002169   -0.0004661   -0.0000000
 C   -3.5603445   -4.7360471    0.0000000  0.00   -0.0009776    0.0009417   -0.0000000
 C   -2.8349442   -5.9420939    0.0000000  0.00   -0.0016236   -0.0005000   -0.0000000
 C   -3.5159641   -7.1936607    0.0000000  0.00   -0.0015169    0.0016896   -0.0000000
 C   -3.6422311   -2.3437775    0.0000000  0.00   -0.0024030   -0.0012127   -0.0000000
 C   -2.8634906   -3.4969178    0.0000000  0.00   -0.0015605   -0.0010636   -0.0000000
 C   -2.9812438   -1.1211847    0.0000000  0.00    0.0021587    0.0019189   -0.0000000
 C   -1.4153640   -5.8527116    0.0000000  0.00    0.0013909   -0.0020931   -0.0000000
 C   -0.7131392   -7.0762790    0.0000000  0.00   -0.0009186   -0.0010393   -0.0000000
 C   -2.7619356   -8.3638314    0.0000000  0.00   -0.0008311   -0.0013489   -0.0000000
 C   -1.4035604   -8.2993859    0.0000000  0.00   -0.0024396   -0.0002538   -0.0000000
 C   -1.4198041   -3.3343919    0.0000000  0.00    0.0003809   -0.0009417   -0.0000000
 C   -0.7116793   -4.5748015    0.0000000  0.00   -0.0035679   -0.0006262   -0.0000000
 C   -1.5801604   -0.7934473    0.0000000  0.00    0.0001582   -0.0006225   -0.0000000
 C   -0.7331655   -1.9967664    0.0000000  0.00   -0.0018052    0.0008591   -0.0000000
 H   -8.8786631   -7.3327462    0.0000000  0.00   -0.0026441    0.0008442   -0.0000000
 H   -7.5754340   -9.4579416    0.0000000  0.00   -0.0004085   -0.0006052   -0.0000000
 H   -5.1452108   -9.4121935    0.0000000  0.00    0.0013195   -0.0008303   -0.0000000
 H   -8.9360919   -4.9238761    0.0000000  0.00   -0.0015679   -0.0001991   -0.0000000
 H   -9.0219481   -2.5252488    0.0000000  0.00   -0.0002729    0.0001703   -0.0000000
 H   -3.2280050   -9.3479749    0.0000000  0.00    0.0013546   -0.0010252   -0.0000000
 H   -0.8729859   -9.2486425    0.0000000  0.00    0.0001015    0.0008043   -0.0000000
