148
 Energy =   -4513.4015008880
 C    7.1267092   -6.0953314    0.0000000  0.00    0.0008870   -0.0003206   -0.0000000
 C    5.6893509   -6.0568581    0.0000000  0.00   -0.0009354   -0.0004049   -0.0000000
 C    7.7908937   -7.3429965    0.0000000  0.00   -0.0005955   -0.0004777   -0.0000000
 C    4.9662221   -7.2684125    0.0000000  0.00    0.0007764   -0.0006605   -0.0000000
 C    7.0671319   -8.5126994    0.0000000  0.00    0.0018517   -0.0003441   -0.0000000
 C    5.6741144   -8.4796266    0.0000000  0.00    0.0004978   -0.0000161   -0.0000000
 C    7.1968993   -3.6623136    0.0000000  0.00    0.0001156    0.0009175   -0.0000000
 C    5.7523523   -3.6271432    0.0000000  0.00    0.0001038    0.0002326   -0.0000000
 C    7.8465450   -4.8979551    0.0000000  0.00    0.0001836   -0.0003707   -0.0000000
 C    4.9984703   -4.8101364    0.0000000  0.00    0.0005484   -0.0010622   -0.0000000
 C    7.2754054   -1.2277317    0.0000000  0.00   -0.0004805    0.0011528   -0.0000000
 C    5.8412075   -1.2183215    0.0000000  0.00    0.0014525   -0.0001219   -0.0000000
 C    7.9273558   -2.4637078    0.0000000  0.00    0.0006649   -0.0005346   -0.0000000
 C    5.0779005   -2.3966874    0.0000000  0.00   -0.0002673    0.0005889   -0.0000000
 C    7.9621589    0.0000000    0.0000000  0.00    0.0013586   -0.0000000   -0.0000000
 C    5.1643536    0.0000000    0.0000000  0.00   -0.0017545   -0.0000000   -0.0000000
 C    3.5641088   -4.7460909    0.0000000  0.00   -0.0000220    0.0012518   -0.0000000
 C    2.8384617   -5.9516810    0.0000000  0.00   -0.0007269   -0.0010069   -0.0000000
 C    3.5205501   -7.2015645    0.0000000  0.00   -0.0001477   -0.0002856   -0.0000000
 C    3.6402966   -2.3506191    0.0000000  0.00   -0.0006639    0.0011551   -0.0000000
 C    2.8641779   -3.5050647    0.0000000  0.00   -0.0007076   -0.0001915   -0.0000000
 C    3.7745850    0.0000000    0.0000000  0.00    0.0001505   -0.0000000   -0.0000000
 C    2.9776458   -1.1249496    0.0000000  0.00   -0.0008656   -0.0007340   -0.0000000
 C    1.4164701   -5.8632123    0.0000000  0.00   -0.0004438   -0.0001221   -0.0000000
 C    0.7134605   -7.0859251    0.0000000  0.00   -0.0010195    0.0007575   -0.0000000
 C    2.7648556   -8.3726889    0.0000000  0.00   -0.0002860    0.0004688   -0.0000000
 C    1.4061959   -8.3095868    0.0000000  0.00    0.0012875    0.0001085   -0.0000000
 C    1.4215800   -3.3435144    0.0000000  0.00   -0.0004117   -0.0003135   -0.0000000
 C    0.7115761   -4.5849048    0.0000000  0.00    0.0011197    0.0001573   -0.0000000
 C    1.5791141   -0.8026385    0.0000000  0.00    0.0001826   -0.0000856   -0.0000000
 C    0.7351007   -2.0026992    0.0000000  0.00   -0.0004611   -0.0005505   -0.0000000
 H    8.8746878   -7.3600153    0.0000000  0.00    0.0003598    0.0008582   -0.0000000
 H    7.5769280   -9.4691504    0.0000000  0.00    0.0005577   -0.0008873   -0.0000000
 H    5.1455672   -9.4217067    0.0000000  0.00    0.0001661    0.0013888   -0.0000000
 H    8.9307346   -4.9293011    0.0000000  0.00    0.0004074   -0.0005536   -0.0000000
 H    9.0113965   -2.5045550    0.0000000  0.00    0.0003638   -0.0001912   -0.0000000
 H    9.0471220    0.0000000    0.0000000  0.00    0.0009356   -0.0000000   -0.0000000
 H    3.2407182   -9.3418793    0.0000000  0.00   -0.0001191   -0.0007719   -0.0000000
 H    0.8682183   -9.2419947    0.0000000  0.00    0.0007228    0.0015656   -0.0000000
 C   -7.1267092    6.0953314    0.0000000  0.00   -0.0008870    0.0003206   -0.0000000
 C   -5.6893509    6.0568581    0.0000000  0.00    0.0009354    0.0004049   -0.0000000
 C   -7.7908937    7.3429965    0.0000000  0.00    0.0005955    0.0004777   -0.0000000
 C   -4.9662221    7.2684125    0.0000000  0.00   -0.0007764    0.0006605   -0.0000000
 C   -7.0671319    8.5126994    0.0000000  0.00   -0.0018517    0.0003441   -0.0000000
 C   -5.6741144    8.4796266    0.0000000  0.00   -0.0004978    0.0000161   -0.0000000
 C   -7.1968993    3.6623136    0.0000000  0.00   -0.0001156   -0.0009175   -0.0000000
 C   -5.7523523    3.6271432    0.0000000  0.00   -0.0001038   -0.0002326   -0.0000000
 C   -7.8465450    4.8979551    0.0000000  0.00   -0.0001836    0.0003707   -0.0000000
 C   -4.9984703    4.8101364    0.0000000  0.00   -0.0005484    0.0010622   -0.0000000
 C   -7.2754054    1.2277317    0.0000000  0.00    0.0004805   -0.0011528   -0.0000000
 C   -5.8412075    1.2183215    0.0000000  0.00   -0.0014525    0.0001219   -0.0000000
 C   -7.9273558    2.4637078    0.0000000  0.00   -0.0006649    0.0005346   -0.0000000
 C   -5.0779005    2.3966874    0.0000000  0.00    0.0002673   -0.0005889   -0.0000000
 C   -7.9621589    0.0000000    0.0000000  0.00   -0.0013586   -0.0000000   -0.0000000
 C   -5.1643536    0.0000000    0.0000000  0.00    0.0017545   -0.0000000   -0.0000000
 C   -3.5641088    4.7460909    0.0000000  0.00    0.0000220   -0.0012518   -0.0000000
 C   -2.8384617    5.9516810    0.0000000  0.00    0.0007269    0.0010069   -0.0000000
 C   -3.5205501    7.2015645    0.0000000  0.00    0.0001477    0.0002856   -0.0000000
 C   -3.6402966    2.3506191    0.0000000  0.00    0.0006639   -0.0011551   -0.0000000
 C   -2.8641779    3.5050647    0.0000000  0.00    0.0007076    0.0001915   -0.0000000
 C   -3.7745850    0.0000000    0.0000000  0.00   -0.0001505   -0.0000000   -0.0000000
 C   -2.9776458    1.1249496    0.0000000  0.00    0.0008656    0.0007340   -0.0000000
 C   -1.4164701    5.8632123    0.0000000  0.00    0.0004438    0.0001221   -0.0000000
 C   -0.7134605    7.0859251    0.0000000  0.00    0.0010195   -0.0007575   -0.0000000
 C   -2.7648556    8.3726889    0.0000000  0.00    0.0002860   -0.0004688   -0.0000000
 C   -1.4061959    8.3095868    0.0000000  0.00   -0.0012875   -0.0001085   -0.0000000
 C   -1.4215800    3.3435144    0.0000000  0.00    0.0004117    0.0003135   -0.0000000
 C   -0.7115761    4.5849048    0.0000000  0.00   -0.0011197   -0.0001573   -0.0000000
 C   -1.5791141    0.8026385    0.0000000  0.00   -0.0001826    0.0000856   -0.0000000
 C   -0.7351007    2.0026992    0.0000000  0.00    0.0004611    0.0005505   -0.0000000
 H   -8.8746878    7.3600153    0.0000000  0.00   -0.0003598   -0.0008582   -0.0000000
 H   -7.5769280    9.4691504    0.0000000  0.00   -0.0005577    0.0008873   -0.0000000
 H   -5.1455672    9.4217067    0.0000000  0.00   -0.0001661   -0.0013888   -0.0000000
 H   -8.9307346    4.9293011    0.0000000  0.00   -0.0004074    0.0005536   -0.0000000
 H   -9.0113965    2.5045550    0.0000000  0.00   -0.0003638    0.0001912   -0.0000000
 H   -9.0471220    0.0000000    0.0000000  0.00   -0.0009356   -0.0000000   -0.0000000
 H   -3.2407182    9.3418793    0.0000000  0.00    0.0001191    0.0007719   -0.0000000
 H   -0.8682183    9.2419947    0.0000000  0.00   -0.0007228   -0.0015656   -0.0000000
 C    7.1267092    6.0953314    0.0000000  0.00    0.0008870    0.0003206   -0.0000000
 C    5.6893509    6.0568581    0.0000000  0.00   -0.0009354    0.0004049   -0.0000000
 C    7.7908937    7.3429965    0.0000000  0.00   -0.0005955    0.0004777   -0.0000000
 C    4.9662221    7.2684125    0.0000000  0.00    0.0007764    0.0006605   -0.0000000
 C    7.0671319    8.5126994    0.0000000  0.00    0.0018517    0.0003441   -0.0000000
 C    5.6741144    8.4796266    0.0000000  0.00    0.0004978    0.0000161   -0.0000000
 C    7.1968993    3.6623136    0.0000000  0.00    0.0001156   -0.0009175   -0.0000000
 C    5.7523523    3.6271432    0.0000000  0.00    0.0001038   -0.0002326   -0.0000000
 C    7.8465450    4.8979551    0.0000000  0.00    0.0001836    0.0003707   -0.0000000
 C    4.9984703    4.8101364    0.0000000  0.00    0.0005484    0.0010622   -0.0000000
 C    7.2754054    1.2277317    0.0000000  0.00   -0.0004805   -0.0011528   -0.0000000
 C    5.8412075    1.2183215    0.0000000  0.00    0.0014525    0.0001219   -0.0000000
 C    7.9273558    2.4637078    0.0000000  0.00    0.0006649    0.0005346   -0.0000000
 C    5.0779005    2.3966874    0.0000000  0.00   -0.0002673   -0.0005889   -0.0000000
 C    3.5641088    4.7460909    0.0000000  0.00   -0.0000220   -0.0012518   -0.0000000
 C    2.8384617    5.9516810    0.0000000  0.00   -0.0007269    0.0010069   -0.0000000
 C    3.5205501    7.2015645    0.0000000  0.00   -0.0001477    0.0002856   -0.0000000
 C    3.6402966    2.3506191    0.0000000  0.00   -0.0006639   -0.0011551   -0.0000000
 C    2.8641779    3.5050647    0.0000000  0.00   -0.0007076    0.0001915   -0.0000000
 C    2.9776458    1.1249496    0.0000000  0.00   -0.0008656    0.0007340   -0.0000000
 C    1.4164701    5.8632123    0.0000000  0.00   -0.0004438    0.0001221   -0.0000000
 C    0.7134605    7.0859251    0.0000000  0.00   -0.0010195   -0.0007575   -0.0000000
 C    2.7648556    8.3726889    0.0000000  0.00   -0.0002860   -0.0004688   -0.0000000
 C    1.4061959    8.3095868    0.0000000  0.00    0.0012875   -0.0001085   -0.0000000
 C    1.4215800    3.3435144    0.0000000  0.00   -0.0004117    0.0003135   -0.0000000
 C    0.7115761    4.5849048    0.0000000  0.00    0.0011197   -0.0001573   -0.0000000
 C    1.5791141    0.8026385    0.0000000  0.00    0.0001826    0.0000856   -0.0000000
 C    0.7351007    2.0026992    0.0000000  0.00   -0.0004611    0.0005505   -0.0000000
 H    8.8746878    7.3600153    0.0000000  0.00    0.0003598   -0.0008582   -0.0000000
 H    7.5769280    9.4691504    0.0000000  0.00    0.0005577    0.0008873   -0.0000000
 H    5.1455672    9.4217067    0.0000000  0.00    0.0001661   -0.0013888   -0.0000000
 H    8.9307346    4.9293011    0.0000000  0.00    0.0004074    0.0005536   -0.0000000
 H    9.0113965    2.5045550    0.0000000  0.00    0.0003638    0.0001912   -0.0000000
 H    3.2407182    9.3418793    0.0000000  0.00   -0.0001191    0.0007719   -0.0000000
 H    0.8682183    9.2419947    0.0000000  0.00    0.0007228   -0.0015656   -0.0000000
 C   -7.1267092   -6.0953314    0.0000000  0.00   -0.0008870   -0.0003206   -0.0000000
 C   -5.6893509   -6.0568581    0.0000000  0.00    0.0009354   -0.0004049   -0.0000000
 C   -7.7908937   -7.3429965    0.0000000  0.00    0.0005955   -0.0004777   -0.0000000
 C   -4.9662221   -7.2684125    0.0000000  0.00   -0.0007764   -0.0006605   -0.0000000
 C   -7.0671319   -8.5126994    0.0000000  0.00   -0.0018517   -0.0003441   -0.0000000
 C   -5.6741144   -8.4796266    0.0000000  0.00   -0.0004978   -0.0000161   -0.0000000
 C   -7.1968993   -3.6623136    0.0000000  0.00   -0.0001156    0.0009175   -0.0000000
 C   -5.7523523   -3.6271432    0.0000000  0.00   -0.0001038    0.0002326   -0.0000000
 C   -7.8465450   -4.8979551    0.0000000  0.00   -0.0001836   -0.0003707   -0.0000000
 C   -4.9984703   -4.8101364    0.0000000  0.00   -0.0005484   -0.0010622   -0.0000000
 C   -7.2754054   -1.2277317    0.0000000  0.00    0.0004805    0.0011528   -0.0000000
 C   -5.8412075   -1.2183215    0.0000000  0.00   -0.0014525   -0.0001219   -0.0000000
 C   -7.9273558   -2.4637078    0.0000000  0.00   -0.0006649   -0.0005346   -0.0000000
 C   -5.0779005   -2.3966874    0.0000000  0.00    0.0002673    0.0005889   -0.0000000
 C   -3.5641088   -4.7460909    0.0000000  0.00    0.0000220    0.0012518   -0.0000000
 C   -2.8384617   -5.9516810    0.0000000  0.00    0.0007269   -0.0010069   -0.0000000
 C   -3.5205501   -7.2015645    0.0000000  0.00    0.0001477   -0.0002856   -0.0000000
 C   -3.6402966   -2.3506191    0.0000000  0.00    0.0006639    0.0011551   -0.0000000
 C   -2.8641779   -3.5050647    0.0000000  0.00    0.0007076   -0.0001915   -0.0000000
 C   -2.9776458   -1.1249496    0.0000000  0.00    0.0008656   -0.0007340   -0.0000000
 C   -1.4164701   -5.8632123    0.0000000  0.00    0.0004438   -0.0001221   -0.0000000
 C   -0.7134605   -7.0859251    0.0000000  0.00    0.0010195    0.0007575   -0.0000000
 C   -2.7648556   -8.3726889    0.0000000  0.00    0.0002860    0.0004688   -0.0000000
 C   -1.4061959   -8.3095868    0.0000000  0.00   -0.0012875    0.0001085   -0.0000000
 C   -1.4215800   -3.3435144    0.0000000  0.00    0.0004117   -0.0003135   -0.0000000
 C   -0.7115761   -4.5849048    0.0000000  0.00   -0.0011197    0.0001573   -0.0000000
 C   -1.5791141   -0.8026385    0.0000000  0.00   -0.0001826   -0.0000856   -0.0000000
 C   -0.7351007   -2.0026992    0.0000000  0.00    0.0004611   -0.0005505   -0.0000000
 H   -8.8746878   -7.3600153    0.0000000  0.00   -0.0003598    0.0008582   -0.0000000
 H   -7.5769280   -9.4691504    0.0000000  0.00   -0.0005577   -0.0008873   -0.0000000
 H   -5.1455672   -9.4217067    0.0000000  0.00   -0.0001661    0.0013888   -0.0000000
 H   -8.9307346   -4.9293011    0.0000000  0.00   -0.0004074   -0.0005536   -0.0000000
 H   -9.0113965   -2.5045550    0.0000000  0.00   -0.0003638   -0.0001912   -0.0000000
 H   -3.2407182   -9.3418793    0.0000000  0.00    0.0001191   -0.0007719   -0.0000000
 H   -0.8682183   -9.2419947    0.0000000  0.00   -0.0007228    0.0015656   -0.0000000
