148
 Energy =   -4513.4201695810
 C    7.1148345   -6.1045788    0.0000000  0.00    0.0015473   -0.0007592   -0.0000000
 C    5.6790638   -6.0670510    0.0000000  0.00    0.0008657   -0.0000354   -0.0000000
 C    7.7775065   -7.3533026    0.0000000  0.00    0.0005768    0.0009451   -0.0000000
 C    4.9555007   -7.2769734    0.0000000  0.00    0.0022633   -0.0009199   -0.0000000
 C    7.0539882   -8.5262764    0.0000000  0.00    0.0002126   -0.0004013   -0.0000000
 C    5.6637613   -8.4946497    0.0000000  0.00    0.0013432    0.0002257   -0.0000000
 C    7.1863707   -3.6691501    0.0000000  0.00   -0.0018204   -0.0010456   -0.0000000
 C    5.7499986   -3.6345202    0.0000000  0.00    0.0001827   -0.0006662   -0.0000000
 C    7.8346061   -4.9077975    0.0000000  0.00   -0.0003168   -0.0002506   -0.0000000
 C    4.9911558   -4.8198758    0.0000000  0.00   -0.0000905   -0.0018397   -0.0000000
 C    7.2712408   -1.2352724    0.0000000  0.00   -0.0004963    0.0002889   -0.0000000
 C    5.8382052   -1.2243916    0.0000000  0.00   -0.0001176   -0.0004879   -0.0000000
 C    7.9181188   -2.4665813    0.0000000  0.00   -0.0007950   -0.0016002   -0.0000000
 C    5.0754681   -2.4009852    0.0000000  0.00   -0.0030136    0.0001885   -0.0000000
 C    7.9600805    0.0000000    0.0000000  0.00   -0.0017660   -0.0000000   -0.0000000
 C    5.1576371    0.0000000    0.0000000  0.00   -0.0035537   -0.0000000   -0.0000000
 C    3.5622182   -4.7557402    0.0000000  0.00    0.0001980   -0.0001520   -0.0000000
 C    2.8356117   -5.9591638    0.0000000  0.00    0.0026389   -0.0011153   -0.0000000
 C    3.5170913   -7.2100083    0.0000000  0.00    0.0004743    0.0015136   -0.0000000
 C    3.6375599   -2.3550956    0.0000000  0.00    0.0011242   -0.0023298   -0.0000000
 C    2.8591699   -3.5065750    0.0000000  0.00   -0.0003930    0.0002542   -0.0000000
 C    3.7747955    0.0000000    0.0000000  0.00    0.0015858   -0.0000000   -0.0000000
 C    2.9748510   -1.1287558    0.0000000  0.00   -0.0000694    0.0014202   -0.0000000
 C    1.4127759   -5.8710134    0.0000000  0.00   -0.0010659   -0.0001793   -0.0000000
 C    0.7098373   -7.0928569    0.0000000  0.00    0.0022150    0.0011467   -0.0000000
 C    2.7582457   -8.3864811    0.0000000  0.00    0.0018566    0.0007718   -0.0000000
 C    1.4051351   -8.3227249    0.0000000  0.00   -0.0016500   -0.0014733   -0.0000000
 C    1.4229043   -3.3463767    0.0000000  0.00    0.0013591    0.0007003   -0.0000000
 C    0.7076434   -4.5952015    0.0000000  0.00    0.0002437    0.0004833   -0.0000000
 C    1.5821999   -0.8159949    0.0000000  0.00    0.0008362    0.0001912   -0.0000000
 C    0.7391080   -2.0085327    0.0000000  0.00   -0.0007561    0.0003329   -0.0000000
 H    8.8613811   -7.3705012    0.0000000  0.00    0.0000066   -0.0004262   -0.0000000
 H    7.5659582   -9.4816646    0.0000000  0.00   -0.0000880    0.0006019   -0.0000000
 H    5.1339679   -9.4356864    0.0000000  0.00    0.0006327    0.0001726   -0.0000000
 H    8.9187927   -4.9403870    0.0000000  0.00    0.0006054    0.0004338   -0.0000000
 H    9.0020431   -2.5096205    0.0000000  0.00   -0.0004699   -0.0000369   -0.0000000
 H    9.0445835    0.0000000    0.0000000  0.00    0.0009245   -0.0000000   -0.0000000
 H    3.2348482   -9.3551246    0.0000000  0.00    0.0009930    0.0025217   -0.0000000
 H    0.8655183   -9.2538126    0.0000000  0.00    0.0004068    0.0004525   -0.0000000
 C   -7.1148345    6.1045788    0.0000000  0.00   -0.0015473    0.0007592   -0.0000000
 C   -5.6790638    6.0670510    0.0000000  0.00   -0.0008657    0.0000354   -0.0000000
 C   -7.7775065    7.3533026    0.0000000  0.00   -0.0005768   -0.0009451   -0.0000000
 C   -4.9555007    7.2769734    0.0000000  0.00   -0.0022633    0.0009199   -0.0000000
 C   -7.0539882    8.5262764    0.0000000  0.00   -0.0002126    0.0004013   -0.0000000
 C   -5.6637613    8.4946497    0.0000000  0.00   -0.0013432   -0.0002257   -0.0000000
 C   -7.1863707    3.6691501    0.0000000  0.00    0.0018204    0.0010456   -0.0000000
 C   -5.7499986    3.6345202    0.0000000  0.00   -0.0001827    0.0006662   -0.0000000
 C   -7.8346061    4.9077975    0.0000000  0.00    0.0003168    0.0002506   -0.0000000
 C   -4.9911558    4.8198758    0.0000000  0.00    0.0000905    0.0018397   -0.0000000
 C   -7.2712408    1.2352724    0.0000000  0.00    0.0004963   -0.0002889   -0.0000000
 C   -5.8382052    1.2243916    0.0000000  0.00    0.0001176    0.0004879   -0.0000000
 C   -7.9181188    2.4665813    0.0000000  0.00    0.0007950    0.0016002   -0.0000000
 C   -5.0754681    2.4009852    0.0000000  0.00    0.0030136   -0.0001885   -0.0000000
 C   -7.9600805    0.0000000    0.0000000  0.00    0.0017660   -0.0000000   -0.0000000
 C   -5.1576371    0.0000000    0.0000000  0.00    0.0035537   -0.0000000   -0.0000000
 C   -3.5622182    4.7557402    0.0000000  0.00   -0.0001980    0.0001520   -0.0000000
 C   -2.8356117    5.9591638    0.0000000  0.00   -0.0026389    0.0011153   -0.0000000
 C   -3.5170913    7.2100083    0.0000000  0.00   -0.0004743   -0.0015136   -0.0000000
 C   -3.6375599    2.3550956    0.0000000  0.00   -0.0011242    0.0023298   -0.0000000
 C   -2.8591699    3.5065750    0.0000000  0.00    0.0003930   -0.0002542   -0.0000000
 C   -3.7747955    0.0000000    0.0000000  0.00   -0.0015858   -0.0000000   -0.0000000
 C   -2.9748510    1.1287558    0.0000000  0.00    0.0000694   -0.0014202   -0.0000000
 C   -1.4127759    5.8710134    0.0000000  0.00    0.0010659    0.0001793   -0.0000000
 C   -0.7098373    7.0928569    0.0000000  0.00   -0.0022150   -0.0011467   -0.0000000
 C   -2.7582457    8.3864811    0.0000000  0.00   -0.0018566   -0.0007718   -0.0000000
 C   -1.4051351    8.3227249    0.0000000  0.00    0.0016500    0.0014733   -0.0000000
 C   -1.4229043    3.3463767    0.0000000  0.00   -0.0013591   -0.0007003   -0.0000000
 C   -0.7076434    4.5952015    0.0000000  0.00   -0.0002437   -0.0004833   -0.0000000
 C   -1.5821999    0.8159949    0.0000000  0.00   -0.0008362   -0.0001912   -0.0000000
 C   -0.7391080    2.0085327    0.0000000  0.00    0.0007561   -0.0003329   -0.0000000
 H   -8.8613811    7.3705012    0.0000000  0.00   -0.0000066    0.0004262   -0.0000000
 H   -7.5659582    9.4816646    0.0000000  0.00    0.0000880   -0.0006019   -0.0000000
 H   -5.1339679    9.4356864    0.0000000  0.00   -0.0006327   -0.0001726   -0.0000000
 H   -8.9187927    4.9403870    0.0000000  0.00   -0.0006054   -0.0004338   -0.0000000
 H   -9.0020431    2.5096205    0.0000000  0.00    0.0004699    0.0000369   -0.0000000
 H   -9.0445835    0.0000000    0.0000000  0.00   -0.0009245   -0.0000000   -0.0000000
 H   -3.2348482    9.3551246    0.0000000  0.00   -0.0009930   -0.0025217   -0.0000000
 H   -0.8655183    9.2538126    0.0000000  0.00   -0.0004068   -0.0004525   -0.0000000
 C    7.1148345    6.1045788    0.0000000  0.00    0.0015473    0.0007592   -0.0000000
 C    5.6790638    6.0670510    0.0000000  0.00    0.0008657    0.0000354   -0.0000000
 C    7.7775065    7.3533026    0.0000000  0.00    0.0005768   -0.0009451   -0.0000000
 C    4.9555007    7.2769734    0.0000000  0.00    0.0022633    0.0009199   -0.0000000
 C    7.0539882    8.5262764    0.0000000  0.00    0.0002126    0.0004013   -0.0000000
 C    5.6637613    8.4946497    0.0000000  0.00    0.0013432   -0.0002257   -0.0000000
 C    7.1863707    3.6691501    0.0000000  0.00   -0.0018204    0.0010456   -0.0000000
 C    5.7499986    3.6345202    0.0000000  0.00    0.0001827    0.0006662   -0.0000000
 C    7.8346061    4.9077975    0.0000000  0.00   -0.0003168    0.0002506   -0.0000000
 C    4.9911558    4.8198758    0.0000000  0.00   -0.0000905    0.0018397   -0.0000000
 C    7.2712408    1.2352724    0.0000000  0.00   -0.0004963   -0.0002889   -0.0000000
 C    5.8382052    1.2243916    0.0000000  0.00   -0.0001176    0.0004879   -0.0000000
 C    7.9181188    2.4665813    0.0000000  0.00   -0.0007950    0.0016002   -0.0000000
 C    5.0754681    2.4009852    0.0000000  0.00   -0.0030136   -0.0001885   -0.0000000
 C    3.5622182    4.7557402    0.0000000  0.00    0.0001980    0.0001520   -0.0000000
 C    2.8356117    5.9591638    0.0000000  0.00    0.0026389    0.0011153   -0.0000000
 C    3.5170913    7.2100083    0.0000000  0.00    0.0004743   -0.0015136   -0.0000000
 C    3.6375599    2.3550956    0.0000000  0.00    0.0011242    0.0023298   -0.0000000
 C    2.8591699    3.5065750    0.0000000  0.00   -0.0003930   -0.0002542   -0.0000000
 C    2.9748510    1.1287558    0.0000000  0.00   -0.0000694   -0.0014202   -0.0000000
 C    1.4127759    5.8710134    0.0000000  0.00   -0.0010659    0.0001793   -0.0000000
 C    0.7098373    7.0928569    0.0000000  0.00    0.0022150   -0.0011467   -0.0000000
 C    2.7582457    8.3864811    0.0000000  0.00    0.0018566   -0.0007718   -0.0000000
 C    1.4051351    8.3227249    0.0000000  0.00   -0.0016500    0.0014733   -0.0000000
 C    1.4229043    3.3463767    0.0000000  0.00    0.0013591   -0.0007003   -0.0000000
 C    0.7076434    4.5952015    0.0000000  0.00    0.0002437   -0.0004833   -0.0000000
 C    1.5821999    0.8159949    0.0000000  0.00    0.0008362   -0.0001912   -0.0000000
 C    0.7391080    2.0085327    0.0000000  0.00   -0.0007561   -0.0003329   -0.0000000
 H    8.8613811    7.3705012    0.0000000  0.00    0.0000066    0.0004262   -0.0000000
 H    7.5659582    9.4816646    0.0000000  0.00   -0.0000880   -0.0006019   -0.0000000
 H    5.1339679    9.4356864    0.0000000  0.00    0.0006327   -0.0001726   -0.0000000
 H    8.9187927    4.9403870    0.0000000  0.00    0.0006054   -0.0004338   -0.0000000
 H    9.0020431    2.5096205    0.0000000  0.00   -0.0004699    0.0000369   -0.0000000
 H    3.2348482    9.3551246    0.0000000  0.00    0.0009930   -0.0025217   -0.0000000
 H    0.8655183    9.2538126    0.0000000  0.00    0.0004068   -0.0004525   -0.0000000
 C   -7.1148345   -6.1045788    0.0000000  0.00   -0.0015473   -0.0007592   -0.0000000
 C   -5.6790638   -6.0670510    0.0000000  0.00   -0.0008657   -0.0000354   -0.0000000
 C   -7.7775065   -7.3533026    0.0000000  0.00   -0.0005768    0.0009451   -0.0000000
 C   -4.9555007   -7.2769734    0.0000000  0.00   -0.0022633   -0.0009199   -0.0000000
 C   -7.0539882   -8.5262764    0.0000000  0.00   -0.0002126   -0.0004013   -0.0000000
 C   -5.6637613   -8.4946497    0.0000000  0.00   -0.0013432    0.0002257   -0.0000000
 C   -7.1863707   -3.6691501    0.0000000  0.00    0.0018204   -0.0010456   -0.0000000
 C   -5.7499986   -3.6345202    0.0000000  0.00   -0.0001827   -0.0006662   -0.0000000
 C   -7.8346061   -4.9077975    0.0000000  0.00    0.0003168   -0.0002506   -0.0000000
 C   -4.9911558   -4.8198758    0.0000000  0.00    0.0000905   -0.0018397   -0.0000000
 C   -7.2712408   -1.2352724    0.0000000  0.00    0.0004963    0.0002889   -0.0000000
 C   -5.8382052   -1.2243916    0.0000000  0.00    0.0001176   -0.0004879   -0.0000000
 C   -7.9181188   -2.4665813    0.0000000  0.00    0.0007950   -0.0016002   -0.0000000
 C   -5.0754681   -2.4009852    0.0000000  0.00    0.0030136    0.0001885   -0.0000000
 C   -3.5622182   -4.7557402    0.0000000  0.00   -0.0001980   -0.0001520   -0.0000000
 C   -2.8356117   -5.9591638    0.0000000  0.00   -0.0026389   -0.0011153   -0.0000000
 C   -3.5170913   -7.2100083    0.0000000  0.00   -0.0004743    0.0015136   -0.0000000
 C   -3.6375599   -2.3550956    0.0000000  0.00   -0.0011242   -0.0023298   -0.0000000
 C   -2.8591699   -3.5065750    0.0000000  0.00    0.0003930    0.0002542   -0.0000000
 C   -2.9748510   -1.1287558    0.0000000  0.00    0.0000694    0.0014202   -0.0000000
 C   -1.4127759   -5.8710134    0.0000000  0.00    0.0010659   -0.0001793   -0.0000000
 C   -0.7098373   -7.0928569    0.0000000  0.00   -0.0022150    0.0011467   -0.0000000
 C   -2.7582457   -8.3864811    0.0000000  0.00   -0.0018566    0.0007718   -0.0000000
 C   -1.4051351   -8.3227249    0.0000000  0.00    0.0016500   -0.0014733   -0.0000000
 C   -1.4229043   -3.3463767    0.0000000  0.00   -0.0013591    0.0007003   -0.0000000
 C   -0.7076434   -4.5952015    0.0000000  0.00   -0.0002437    0.0004833   -0.0000000
 C   -1.5821999   -0.8159949    0.0000000  0.00   -0.0008362    0.0001912   -0.0000000
 C   -0.7391080   -2.0085327    0.0000000  0.00    0.0007561    0.0003329   -0.0000000
 H   -8.8613811   -7.3705012    0.0000000  0.00   -0.0000066   -0.0004262   -0.0000000
 H   -7.5659582   -9.4816646    0.0000000  0.00    0.0000880    0.0006019   -0.0000000
 H   -5.1339679   -9.4356864    0.0000000  0.00   -0.0006327    0.0001726   -0.0000000
 H   -8.9187927   -4.9403870    0.0000000  0.00   -0.0006054    0.0004338   -0.0000000
 H   -9.0020431   -2.5096205    0.0000000  0.00    0.0004699   -0.0000369   -0.0000000
 H   -3.2348482   -9.3551246    0.0000000  0.00   -0.0009930    0.0025217   -0.0000000
 H   -0.8655183   -9.2538126    0.0000000  0.00   -0.0004068    0.0004525   -0.0000000
