148
 Energy =   -4513.4111858460
 C    7.1258232   -6.1002832    0.0000000  0.00    0.0003542    0.0010111   -0.0000000
 C    5.6881543   -6.0627372    0.0000000  0.00   -0.0006209    0.0012687   -0.0000000
 C    7.7873618   -7.3492771    0.0000000  0.00    0.0005667    0.0012266   -0.0000000
 C    4.9643533   -7.2737511    0.0000000  0.00    0.0007726    0.0000455   -0.0000000
 C    7.0624896   -8.5196276    0.0000000  0.00    0.0015430   -0.0005192   -0.0000000
 C    5.6708687   -8.4882407    0.0000000  0.00   -0.0009398    0.0009647   -0.0000000
 C    7.1957420   -3.6657617    0.0000000  0.00    0.0007832    0.0009664   -0.0000000
 C    5.7522797   -3.6302204    0.0000000  0.00    0.0006575    0.0001000   -0.0000000
 C    7.8452143   -4.9025189    0.0000000  0.00    0.0002187    0.0003719   -0.0000000
 C    4.9971759   -4.8156212    0.0000000  0.00    0.0009074    0.0002433   -0.0000000
 C    7.2687183   -1.2314712    0.0000000  0.00    0.0005599   -0.0002773   -0.0000000
 C    5.8358427   -1.2200976    0.0000000  0.00    0.0007644    0.0003350   -0.0000000
 C    7.9226356   -2.4642217    0.0000000  0.00   -0.0001340    0.0010235   -0.0000000
 C    5.0755112   -2.3999868    0.0000000  0.00    0.0001110   -0.0015273   -0.0000000
 C    7.9524173    0.0000000    0.0000000  0.00    0.0002593   -0.0000000   -0.0000000
 C    5.1586757    0.0000000    0.0000000  0.00   -0.0015583   -0.0000000   -0.0000000
 C    3.5656516   -4.7511929    0.0000000  0.00   -0.0021401    0.0015814   -0.0000000
 C    2.8389126   -5.9552553    0.0000000  0.00   -0.0003511   -0.0020440   -0.0000000
 C    3.5211097   -7.2049587    0.0000000  0.00   -0.0008369    0.0011901   -0.0000000
 C    3.6389628   -2.3546299    0.0000000  0.00   -0.0015972    0.0003069   -0.0000000
 C    2.8636154   -3.5075066    0.0000000  0.00   -0.0001035   -0.0014136   -0.0000000
 C    3.7704342    0.0000000    0.0000000  0.00    0.0016230   -0.0000000   -0.0000000
 C    2.9749405   -1.1283605    0.0000000  0.00   -0.0014571   -0.0006829   -0.0000000
 C    1.4159966   -5.8672193    0.0000000  0.00   -0.0001777    0.0005341   -0.0000000
 C    0.7124984   -7.0890416    0.0000000  0.00    0.0006114    0.0006001   -0.0000000
 C    2.7633820   -8.3771673    0.0000000  0.00    0.0001506   -0.0017969   -0.0000000
 C    1.4064331   -8.3142697    0.0000000  0.00    0.0004709    0.0009290   -0.0000000
 C    1.4235241   -3.3480466    0.0000000  0.00   -0.0017248   -0.0003393   -0.0000000
 C    0.7108361   -4.5898777    0.0000000  0.00    0.0001506   -0.0001693   -0.0000000
 C    1.5802516   -0.8159756    0.0000000  0.00   -0.0014510    0.0007257   -0.0000000
 C    0.7391825   -2.0063199    0.0000000  0.00   -0.0010602   -0.0001092   -0.0000000
 H    8.8710413   -7.3680243    0.0000000  0.00    0.0021871    0.0012140   -0.0000000
 H    7.5730940   -9.4758728    0.0000000  0.00    0.0007814    0.0008781   -0.0000000
 H    5.1416529   -9.4296397    0.0000000  0.00    0.0000978   -0.0003265   -0.0000000
 H    8.9293370   -4.9328551    0.0000000  0.00    0.0004710   -0.0023959   -0.0000000
 H    9.0067497   -2.5010224    0.0000000  0.00   -0.0001148   -0.0026146   -0.0000000
 H    9.0376097    0.0000000    0.0000000  0.00    0.0004229   -0.0000000   -0.0000000
 H    3.2397056   -9.3458594    0.0000000  0.00    0.0006333   -0.0020504   -0.0000000
 H    0.8680262   -9.2463292    0.0000000  0.00    0.0006649    0.0004465   -0.0000000
 C   -7.1258232    6.1002832    0.0000000  0.00   -0.0003542   -0.0010111   -0.0000000
 C   -5.6881543    6.0627372    0.0000000  0.00    0.0006209   -0.0012687   -0.0000000
 C   -7.7873618    7.3492771    0.0000000  0.00   -0.0005667   -0.0012266   -0.0000000
 C   -4.9643533    7.2737511    0.0000000  0.00   -0.0007726   -0.0000455   -0.0000000
 C   -7.0624896    8.5196276    0.0000000  0.00   -0.0015430    0.0005192   -0.0000000
 C   -5.6708687    8.4882407    0.0000000  0.00    0.0009398   -0.0009647   -0.0000000
 C   -7.1957420    3.6657617    0.0000000  0.00   -0.0007832   -0.0009664   -0.0000000
 C   -5.7522797    3.6302204    0.0000000  0.00   -0.0006575   -0.0001000   -0.0000000
 C   -7.8452143    4.9025189    0.0000000  0.00   -0.0002187   -0.0003719   -0.0000000
 C   -4.9971759    4.8156212    0.0000000  0.00   -0.0009074   -0.0002433   -0.0000000
 C   -7.2687183    1.2314712    0.0000000  0.00   -0.0005599    0.0002773   -0.0000000
 C   -5.8358427    1.2200976    0.0000000  0.00   -0.0007644   -0.0003350   -0.0000000
 C   -7.9226356    2.4642217    0.0000000  0.00    0.0001340   -0.0010235   -0.0000000
 C   -5.0755112    2.3999868    0.0000000  0.00   -0.0001110    0.0015273   -0.0000000
 C   -7.9524173    0.0000000    0.0000000  0.00   -0.0002593   -0.0000000   -0.0000000
 C   -5.1586757    0.0000000    0.0000000  0.00    0.0015583   -0.0000000   -0.0000000
 C   -3.5656516    4.7511929    0.0000000  0.00    0.0021401   -0.0015814   -0.0000000
 C   -2.8389126    5.9552553    0.0000000  0.00    0.0003511    0.0020440   -0.0000000
 C   -3.5211097    7.2049587    0.0000000  0.00    0.0008369   -0.0011901   -0.0000000
 C   -3.6389628    2.3546299    0.0000000  0.00    0.0015972   -0.0003069   -0.0000000
 C   -2.8636154    3.5075066    0.0000000  0.00    0.0001035    0.0014136   -0.0000000
 C   -3.7704342    0.0000000    0.0000000  0.00   -0.0016230   -0.0000000   -0.0000000
 C   -2.9749405    1.1283605    0.0000000  0.00    0.0014571    0.0006829   -0.0000000
 C   -1.4159966    5.8672193    0.0000000  0.00    0.0001777   -0.0005341   -0.0000000
 C   -0.7124984    7.0890416    0.0000000  0.00   -0.0006114   -0.0006001   -0.0000000
 C   -2.7633820    8.3771673    0.0000000  0.00   -0.0001506    0.0017969   -0.0000000
 C   -1.4064331    8.3142697    0.0000000  0.00   -0.0004709   -0.0009290   -0.0000000
 C   -1.4235241    3.3480466    0.0000000  0.00    0.0017248    0.0003393   -0.0000000
 C   -0.7108361    4.5898777    0.0000000  0.00   -0.0001506    0.0001693   -0.0000000
 C   -1.5802516    0.8159756    0.0000000  0.00    0.0014510   -0.0007257   -0.0000000
 C   -0.7391825    2.0063199    0.0000000  0.00    0.0010602    0.0001092   -0.0000000
 H   -8.8710413    7.3680243    0.0000000  0.00   -0.0021871   -0.0012140   -0.0000000
 H   -7.5730940    9.4758728    0.0000000  0.00   -0.0007814   -0.0008781   -0.0000000
 H   -5.1416529    9.4296397    0.0000000  0.00   -0.0000978    0.0003265   -0.0000000
 H   -8.9293370    4.9328551    0.0000000  0.00   -0.0004710    0.0023959   -0.0000000
 H   -9.0067497    2.5010224    0.0000000  0.00    0.0001148    0.0026146   -0.0000000
 H   -9.0376097    0.0000000    0.0000000  0.00   -0.0004229   -0.0000000   -0.0000000
 H   -3.2397056    9.3458594    0.0000000  0.00   -0.0006333    0.0020504   -0.0000000
 H   -0.8680262    9.2463292    0.0000000  0.00   -0.0006649   -0.0004465   -0.0000000
 C    7.1258232    6.1002832    0.0000000  0.00    0.0003542   -0.0010111   -0.0000000
 C    5.6881543    6.0627372    0.0000000  0.00   -0.0006209   -0.0012687   -0.0000000
 C    7.7873618    7.3492771    0.0000000  0.00    0.0005667   -0.0012266   -0.0000000
 C    4.9643533    7.2737511    0.0000000  0.00    0.0007726   -0.0000455   -0.0000000
 C    7.0624896    8.5196276    0.0000000  0.00    0.0015430    0.0005192   -0.0000000
 C    5.6708687    8.4882407    0.0000000  0.00   -0.0009398   -0.0009647   -0.0000000
 C    7.1957420    3.6657617    0.0000000  0.00    0.0007832   -0.0009664   -0.0000000
 C    5.7522797    3.6302204    0.0000000  0.00    0.0006575   -0.0001000   -0.0000000
 C    7.8452143    4.9025189    0.0000000  0.00    0.0002187   -0.0003719   -0.0000000
 C    4.9971759    4.8156212    0.0000000  0.00    0.0009074   -0.0002433   -0.0000000
 C    7.2687183    1.2314712    0.0000000  0.00    0.0005599    0.0002773   -0.0000000
 C    5.8358427    1.2200976    0.0000000  0.00    0.0007644   -0.0003350   -0.0000000
 C    7.9226356    2.4642217    0.0000000  0.00   -0.0001340   -0.0010235   -0.0000000
 C    5.0755112    2.3999868    0.0000000  0.00    0.0001110    0.0015273   -0.0000000
 C    3.5656516    4.7511929    0.0000000  0.00   -0.0021401   -0.0015814   -0.0000000
 C    2.8389126    5.9552553    0.0000000  0.00   -0.0003511    0.0020440   -0.0000000
 C    3.5211097    7.2049587    0.0000000  0.00   -0.0008369   -0.0011901   -0.0000000
 C    3.6389628    2.3546299    0.0000000  0.00   -0.0015972   -0.0003069   -0.0000000
 C    2.8636154    3.5075066    0.0000000  0.00   -0.0001035    0.0014136   -0.0000000
 C    2.9749405    1.1283605    0.0000000  0.00   -0.0014571    0.0006829   -0.0000000
 C    1.4159966    5.8672193    0.0000000  0.00   -0.0001777   -0.0005341   -0.0000000
 C    0.7124984    7.0890416    0.0000000  0.00    0.0006114   -0.0006001   -0.0000000
 C    2.7633820    8.3771673    0.0000000  0.00    0.0001506    0.0017969   -0.0000000
 C    1.4064331    8.3142697    0.0000000  0.00    0.0004709   -0.0009290   -0.0000000
 C    1.4235241    3.3480466    0.0000000  0.00   -0.0017248    0.0003393   -0.0000000
 C    0.7108361    4.5898777    0.0000000  0.00    0.0001506    0.0001693   -0.0000000
 C    1.5802516    0.8159756    0.0000000  0.00   -0.0014510   -0.0007257   -0.0000000
 C    0.7391825    2.0063199    0.0000000  0.00   -0.0010602    0.0001092   -0.0000000
 H    8.8710413    7.3680243    0.0000000  0.00    0.0021871   -0.0012140   -0.0000000
 H    7.5730940    9.4758728    0.0000000  0.00    0.0007814   -0.0008781   -0.0000000
 H    5.1416529    9.4296397    0.0000000  0.00    0.0000978    0.0003265   -0.0000000
 H    8.9293370    4.9328551    0.0000000  0.00    0.0004710    0.0023959   -0.0000000
 H    9.0067497    2.5010224    0.0000000  0.00   -0.0001148    0.0026146   -0.0000000
 H    3.2397056    9.3458594    0.0000000  0.00    0.0006333    0.0020504   -0.0000000
 H    0.8680262    9.2463292    0.0000000  0.00    0.0006649   -0.0004465   -0.0000000
 C   -7.1258232   -6.1002832    0.0000000  0.00   -0.0003542    0.0010111   -0.0000000
 C   -5.6881543   -6.0627372    0.0000000  0.00    0.0006209    0.0012687   -0.0000000
 C   -7.7873618   -7.3492771    0.0000000  0.00   -0.0005667    0.0012266   -0.0000000
 C   -4.9643533   -7.2737511    0.0000000  0.00   -0.0007726    0.0000455   -0.0000000
 C   -7.0624896   -8.5196276    0.0000000  0.00   -0.0015430   -0.0005192   -0.0000000
 C   -5.6708687   -8.4882407    0.0000000  0.00    0.0009398    0.0009647   -0.0000000
 C   -7.1957420   -3.6657617    0.0000000  0.00   -0.0007832    0.0009664   -0.0000000
 C   -5.7522797   -3.6302204    0.0000000  0.00   -0.0006575    0.0001000   -0.0000000
 C   -7.8452143   -4.9025189    0.0000000  0.00   -0.0002187    0.0003719   -0.0000000
 C   -4.9971759   -4.8156212    0.0000000  0.00   -0.0009074    0.0002433   -0.0000000
 C   -7.2687183   -1.2314712    0.0000000  0.00   -0.0005599   -0.0002773   -0.0000000
 C   -5.8358427   -1.2200976    0.0000000  0.00   -0.0007644    0.0003350   -0.0000000
 C   -7.9226356   -2.4642217    0.0000000  0.00    0.0001340    0.0010235   -0.0000000
 C   -5.0755112   -2.3999868    0.0000000  0.00   -0.0001110   -0.0015273   -0.0000000
 C   -3.5656516   -4.7511929    0.0000000  0.00    0.0021401    0.0015814   -0.0000000
 C   -2.8389126   -5.9552553    0.0000000  0.00    0.0003511   -0.0020440   -0.0000000
 C   -3.5211097   -7.2049587    0.0000000  0.00    0.0008369    0.0011901   -0.0000000
 C   -3.6389628   -2.3546299    0.0000000  0.00    0.0015972    0.0003069   -0.0000000
 C   -2.8636154   -3.5075066    0.0000000  0.00    0.0001035   -0.0014136   -0.0000000
 C   -2.9749405   -1.1283605    0.0000000  0.00    0.0014571   -0.0006829   -0.0000000
 C   -1.4159966   -5.8672193    0.0000000  0.00    0.0001777    0.0005341   -0.0000000
 C   -0.7124984   -7.0890416    0.0000000  0.00   -0.0006114    0.0006001   -0.0000000
 C   -2.7633820   -8.3771673    0.0000000  0.00   -0.0001506   -0.0017969   -0.0000000
 C   -1.4064331   -8.3142697    0.0000000  0.00   -0.0004709    0.0009290   -0.0000000
 C   -1.4235241   -3.3480466    0.0000000  0.00    0.0017248   -0.0003393   -0.0000000
 C   -0.7108361   -4.5898777    0.0000000  0.00   -0.0001506   -0.0001693   -0.0000000
 C   -1.5802516   -0.8159756    0.0000000  0.00    0.0014510    0.0007257   -0.0000000
 C   -0.7391825   -2.0063199    0.0000000  0.00    0.0010602   -0.0001092   -0.0000000
 H   -8.8710413   -7.3680243    0.0000000  0.00   -0.0021871    0.0012140   -0.0000000
 H   -7.5730940   -9.4758728    0.0000000  0.00   -0.0007814    0.0008781   -0.0000000
 H   -5.1416529   -9.4296397    0.0000000  0.00   -0.0000978   -0.0003265   -0.0000000
 H   -8.9293370   -4.9328551    0.0000000  0.00   -0.0004710   -0.0023959   -0.0000000
 H   -9.0067497   -2.5010224    0.0000000  0.00    0.0001148   -0.0026146   -0.0000000
 H   -3.2397056   -9.3458594    0.0000000  0.00   -0.0006333   -0.0020504   -0.0000000
 H   -0.8680262   -9.2463292    0.0000000  0.00   -0.0006649    0.0004465   -0.0000000
