148
 Energy =   -4513.3862384000
 C    7.1089681   -6.1053124    0.0000000  0.00    0.0020999   -0.0018992   -0.0000000
 C    5.6750517   -6.0688559    0.0000000  0.00    0.0003292   -0.0017480   -0.0000000
 C    7.7677548   -7.3540094    0.0000000  0.00   -0.0007843    0.0008529   -0.0000000
 C    4.9530139   -7.2774572    0.0000000  0.00    0.0016229   -0.0001968   -0.0000000
 C    7.0449018   -8.5280580    0.0000000  0.00   -0.0005355   -0.0003581   -0.0000000
 C    5.6551977   -8.4971347    0.0000000  0.00    0.0006044    0.0007773   -0.0000000
 C    7.1925522   -3.6676699    0.0000000  0.00   -0.0012567   -0.0001237   -0.0000000
 C    5.7496452   -3.6349564    0.0000000  0.00    0.0010644   -0.0011891   -0.0000000
 C    7.8303693   -4.9086981    0.0000000  0.00    0.0012626   -0.0006097   -0.0000000
 C    4.9907624   -4.8187887    0.0000000  0.00   -0.0001477   -0.0003638   -0.0000000
 C    7.2846940   -1.2301225    0.0000000  0.00   -0.0012341    0.0000671   -0.0000000
 C    5.8473733   -1.2230445    0.0000000  0.00    0.0016522   -0.0000563   -0.0000000
 C    7.9231416   -2.4698216    0.0000000  0.00   -0.0008325   -0.0016488   -0.0000000
 C    5.0782625   -2.4008906    0.0000000  0.00   -0.0022197   -0.0004415   -0.0000000
 C    7.9647445    0.0000000    0.0000000  0.00   -0.0017864   -0.0000000   -0.0000000
 C    5.1670058    0.0000000    0.0000000  0.00   -0.0027891   -0.0000000   -0.0000000
 C    3.5611494   -4.7514095    0.0000000  0.00    0.0020149   -0.0032827   -0.0000000
 C    2.8333826   -5.9566026    0.0000000  0.00    0.0015166   -0.0007050   -0.0000000
 C    3.5136854   -7.2067623    0.0000000  0.00    0.0001020    0.0008602   -0.0000000
 C    3.6410446   -2.3519423    0.0000000  0.00    0.0013841    0.0004693   -0.0000000
 C    2.8596140   -3.5039531    0.0000000  0.00   -0.0001431    0.0008598   -0.0000000
 C    3.7791643    0.0000000    0.0000000  0.00    0.0021655   -0.0000000   -0.0000000
 C    2.9783308   -1.1262206    0.0000000  0.00   -0.0012826   -0.0005461   -0.0000000
 C    1.4127103   -5.8679428    0.0000000  0.00   -0.0008141   -0.0003727   -0.0000000
 C    0.7093133   -7.0886297    0.0000000  0.00    0.0002359    0.0005409   -0.0000000
 C    2.7555493   -8.3834775    0.0000000  0.00    0.0017675    0.0000162   -0.0000000
 C    1.4028675   -8.3195733    0.0000000  0.00   -0.0018807   -0.0019772   -0.0000000
 C    1.4227547   -3.3420839    0.0000000  0.00    0.0010789    0.0007592   -0.0000000
 C    0.7072024   -4.5914508    0.0000000  0.00    0.0014951   -0.0010805   -0.0000000
 C    1.5839973   -0.8061628    0.0000000  0.00    0.0001199    0.0011279   -0.0000000
 C    0.7346331   -2.0062812    0.0000000  0.00   -0.0005747    0.0006619   -0.0000000
 H    8.8516796   -7.3727525    0.0000000  0.00   -0.0002375   -0.0006366   -0.0000000
 H    7.5582974   -9.4826861    0.0000000  0.00   -0.0009269    0.0005978   -0.0000000
 H    5.1251696   -9.4378729    0.0000000  0.00    0.0002160    0.0012497   -0.0000000
 H    8.9143889   -4.9463751    0.0000000  0.00    0.0010570    0.0010813   -0.0000000
 H    9.0067653   -2.5162493    0.0000000  0.00   -0.0010376   -0.0014120   -0.0000000
 H    9.0493407    0.0000000    0.0000000  0.00   -0.0017448   -0.0000000   -0.0000000
 H    3.2335250   -9.3510827    0.0000000  0.00   -0.0009414    0.0020795   -0.0000000
 H    0.8631026   -9.2504260    0.0000000  0.00    0.0010189    0.0013812   -0.0000000
 C   -7.1089681    6.1053124    0.0000000  0.00   -0.0020999    0.0018992   -0.0000000
 C   -5.6750517    6.0688559    0.0000000  0.00   -0.0003292    0.0017480   -0.0000000
 C   -7.7677548    7.3540094    0.0000000  0.00    0.0007843   -0.0008529   -0.0000000
 C   -4.9530139    7.2774572    0.0000000  0.00   -0.0016229    0.0001968   -0.0000000
 C   -7.0449018    8.5280580    0.0000000  0.00    0.0005355    0.0003581   -0.0000000
 C   -5.6551977    8.4971347    0.0000000  0.00   -0.0006044   -0.0007773   -0.0000000
 C   -7.1925522    3.6676699    0.0000000  0.00    0.0012567    0.0001237   -0.0000000
 C   -5.7496452    3.6349564    0.0000000  0.00   -0.0010644    0.0011891   -0.0000000
 C   -7.8303693    4.9086981    0.0000000  0.00   -0.0012626    0.0006097   -0.0000000
 C   -4.9907624    4.8187887    0.0000000  0.00    0.0001477    0.0003638   -0.0000000
 C   -7.2846940    1.2301225    0.0000000  0.00    0.0012341   -0.0000671   -0.0000000
 C   -5.8473733    1.2230445    0.0000000  0.00   -0.0016522    0.0000563   -0.0000000
 C   -7.9231416    2.4698216    0.0000000  0.00    0.0008325    0.0016488   -0.0000000
 C   -5.0782625    2.4008906    0.0000000  0.00    0.0022197    0.0004415   -0.0000000
 C   -7.9647445    0.0000000    0.0000000  0.00    0.0017864   -0.0000000   -0.0000000
 C   -5.1670058    0.0000000    0.0000000  0.00    0.0027891   -0.0000000   -0.0000000
 C   -3.5611494    4.7514095    0.0000000  0.00   -0.0020149    0.0032827   -0.0000000
 C   -2.8333826    5.9566026    0.0000000  0.00   -0.0015166    0.0007050   -0.0000000
 C   -3.5136854    7.2067623    0.0000000  0.00   -0.0001020   -0.0008602   -0.0000000
 C   -3.6410446    2.3519423    0.0000000  0.00   -0.0013841   -0.0004693   -0.0000000
 C   -2.8596140    3.5039531    0.0000000  0.00    0.0001431   -0.0008598   -0.0000000
 C   -3.7791643    0.0000000    0.0000000  0.00   -0.0021655   -0.0000000   -0.0000000
 C   -2.9783308    1.1262206    0.0000000  0.00    0.0012826    0.0005461   -0.0000000
 C   -1.4127103    5.8679428    0.0000000  0.00    0.0008141    0.0003727   -0.0000000
 C   -0.7093133    7.0886297    0.0000000  0.00   -0.0002359   -0.0005409   -0.0000000
 C   -2.7555493    8.3834775    0.0000000  0.00   -0.0017675   -0.0000162   -0.0000000
 C   -1.4028675    8.3195733    0.0000000  0.00    0.0018807    0.0019772   -0.0000000
 C   -1.4227547    3.3420839    0.0000000  0.00   -0.0010789   -0.0007592   -0.0000000
 C   -0.7072024    4.5914508    0.0000000  0.00   -0.0014951    0.0010805   -0.0000000
 C   -1.5839973    0.8061628    0.0000000  0.00   -0.0001199   -0.0011279   -0.0000000
 C   -0.7346331    2.0062812    0.0000000  0.00    0.0005747   -0.0006619   -0.0000000
 H   -8.8516796    7.3727525    0.0000000  0.00    0.0002375    0.0006366   -0.0000000
 H   -7.5582974    9.4826861    0.0000000  0.00    0.0009269   -0.0005978   -0.0000000
 H   -5.1251696    9.4378729    0.0000000  0.00   -0.0002160   -0.0012497   -0.0000000
 H   -8.9143889    4.9463751    0.0000000  0.00   -0.0010570   -0.0010813   -0.0000000
 H   -9.0067653    2.5162493    0.0000000  0.00    0.0010376    0.0014120   -0.0000000
 H   -9.0493407    0.0000000    0.0000000  0.00    0.0017448   -0.0000000   -0.0000000
 H   -3.2335250    9.3510827    0.0000000  0.00    0.0009414   -0.0020795   -0.0000000
 H   -0.8631026    9.2504260    0.0000000  0.00   -0.0010189   -0.0013812   -0.0000000
 C    7.1089681    6.1053124    0.0000000  0.00    0.0020999    0.0018992   -0.0000000
 C    5.6750517    6.0688559    0.0000000  0.00    0.0003292    0.0017480   -0.0000000
 C    7.7677548    7.3540094    0.0000000  0.00   -0.0007843   -0.0008529   -0.0000000
 C    4.9530139    7.2774572    0.0000000  0.00    0.0016229    0.0001968   -0.0000000
 C    7.0449018    8.5280580    0.0000000  0.00   -0.0005355    0.0003581   -0.0000000
 C    5.6551977    8.4971347    0.0000000  0.00    0.0006044   -0.0007773   -0.0000000
 C    7.1925522    3.6676699    0.0000000  0.00   -0.0012567    0.0001237   -0.0000000
 C    5.7496452    3.6349564    0.0000000  0.00    0.0010644    0.0011891   -0.0000000
 C    7.8303693    4.9086981    0.0000000  0.00    0.0012626    0.0006097   -0.0000000
 C    4.9907624    4.8187887    0.0000000  0.00   -0.0001477    0.0003638   -0.0000000
 C    7.2846940    1.2301225    0.0000000  0.00   -0.0012341   -0.0000671   -0.0000000
 C    5.8473733    1.2230445    0.0000000  0.00    0.0016522    0.0000563   -0.0000000
 C    7.9231416    2.4698216    0.0000000  0.00   -0.0008325    0.0016488   -0.0000000
 C    5.0782625    2.4008906    0.0000000  0.00   -0.0022197    0.0004415   -0.0000000
 C    3.5611494    4.7514095    0.0000000  0.00    0.0020149    0.0032827   -0.0000000
 C    2.8333826    5.9566026    0.0000000  0.00    0.0015166    0.0007050   -0.0000000
 C    3.5136854    7.2067623    0.0000000  0.00    0.0001020   -0.0008602   -0.0000000
 C    3.6410446    2.3519423    0.0000000  0.00    0.0013841   -0.0004693   -0.0000000
 C    2.8596140    3.5039531    0.0000000  0.00   -0.0001431   -0.0008598   -0.0000000
 C    2.9783308    1.1262206    0.0000000  0.00   -0.0012826    0.0005461   -0.0000000
 C    1.4127103    5.8679428    0.0000000  0.00   -0.0008141    0.0003727   -0.0000000
 C    0.7093133    7.0886297    0.0000000  0.00    0.0002359   -0.0005409   -0.0000000
 C    2.7555493    8.3834775    0.0000000  0.00    0.0017675   -0.0000162   -0.0000000
 C    1.4028675    8.3195733    0.0000000  0.00   -0.0018807    0.0019772   -0.0000000
 C    1.4227547    3.3420839    0.0000000  0.00    0.0010789   -0.0007592   -0.0000000
 C    0.7072024    4.5914508    0.0000000  0.00    0.0014951    0.0010805   -0.0000000
 C    1.5839973    0.8061628    0.0000000  0.00    0.0001199   -0.0011279   -0.0000000
 C    0.7346331    2.0062812    0.0000000  0.00   -0.0005747   -0.0006619   -0.0000000
 H    8.8516796    7.3727525    0.0000000  0.00   -0.0002375    0.0006366   -0.0000000
 H    7.5582974    9.4826861    0.0000000  0.00   -0.0009269   -0.0005978   -0.0000000
 H    5.1251696    9.4378729    0.0000000  0.00    0.0002160   -0.0012497   -0.0000000
 H    8.9143889    4.9463751    0.0000000  0.00    0.0010570   -0.0010813   -0.0000000
 H    9.0067653    2.5162493    0.0000000  0.00   -0.0010376    0.0014120   -0.0000000
 H    3.2335250    9.3510827    0.0000000  0.00   -0.0009414   -0.0020795   -0.0000000
 H    0.8631026    9.2504260    0.0000000  0.00    0.0010189   -0.0013812   -0.0000000
 C   -7.1089681   -6.1053124    0.0000000  0.00   -0.0020999   -0.0018992   -0.0000000
 C   -5.6750517   -6.0688559    0.0000000  0.00   -0.0003292   -0.0017480   -0.0000000
 C   -7.7677548   -7.3540094    0.0000000  0.00    0.0007843    0.0008529   -0.0000000
 C   -4.9530139   -7.2774572    0.0000000  0.00   -0.0016229   -0.0001968   -0.0000000
 C   -7.0449018   -8.5280580    0.0000000  0.00    0.0005355   -0.0003581   -0.0000000
 C   -5.6551977   -8.4971347    0.0000000  0.00   -0.0006044    0.0007773   -0.0000000
 C   -7.1925522   -3.6676699    0.0000000  0.00    0.0012567   -0.0001237   -0.0000000
 C   -5.7496452   -3.6349564    0.0000000  0.00   -0.0010644   -0.0011891   -0.0000000
 C   -7.8303693   -4.9086981    0.0000000  0.00   -0.0012626   -0.0006097   -0.0000000
 C   -4.9907624   -4.8187887    0.0000000  0.00    0.0001477   -0.0003638   -0.0000000
 C   -7.2846940   -1.2301225    0.0000000  0.00    0.0012341    0.0000671   -0.0000000
 C   -5.8473733   -1.2230445    0.0000000  0.00   -0.0016522   -0.0000563   -0.0000000
 C   -7.9231416   -2.4698216    0.0000000  0.00    0.0008325   -0.0016488   -0.0000000
 C   -5.0782625   -2.4008906    0.0000000  0.00    0.0022197   -0.0004415   -0.0000000
 C   -3.5611494   -4.7514095    0.0000000  0.00   -0.0020149   -0.0032827   -0.0000000
 C   -2.8333826   -5.9566026    0.0000000  0.00   -0.0015166   -0.0007050   -0.0000000
 C   -3.5136854   -7.2067623    0.0000000  0.00   -0.0001020    0.0008602   -0.0000000
 C   -3.6410446   -2.3519423    0.0000000  0.00   -0.0013841    0.0004693   -0.0000000
 C   -2.8596140   -3.5039531    0.0000000  0.00    0.0001431    0.0008598   -0.0000000
 C   -2.9783308   -1.1262206    0.0000000  0.00    0.0012826   -0.0005461   -0.0000000
 C   -1.4127103   -5.8679428    0.0000000  0.00    0.0008141   -0.0003727   -0.0000000
 C   -0.7093133   -7.0886297    0.0000000  0.00   -0.0002359    0.0005409   -0.0000000
 C   -2.7555493   -8.3834775    0.0000000  0.00   -0.0017675    0.0000162   -0.0000000
 C   -1.4028675   -8.3195733    0.0000000  0.00    0.0018807   -0.0019772   -0.0000000
 C   -1.4227547   -3.3420839    0.0000000  0.00   -0.0010789    0.0007592   -0.0000000
 C   -0.7072024   -4.5914508    0.0000000  0.00   -0.0014951   -0.0010805   -0.0000000
 C   -1.5839973   -0.8061628    0.0000000  0.00   -0.0001199    0.0011279   -0.0000000
 C   -0.7346331   -2.0062812    0.0000000  0.00    0.0005747    0.0006619   -0.0000000
 H   -8.8516796   -7.3727525    0.0000000  0.00    0.0002375   -0.0006366   -0.0000000
 H   -7.5582974   -9.4826861    0.0000000  0.00    0.0009269    0.0005978   -0.0000000
 H   -5.1251696   -9.4378729    0.0000000  0.00   -0.0002160    0.0012497   -0.0000000
 H   -8.9143889   -4.9463751    0.0000000  0.00   -0.0010570    0.0010813   -0.0000000
 H   -9.0067653   -2.5162493    0.0000000  0.00    0.0010376   -0.0014120   -0.0000000
 H   -3.2335250   -9.3510827    0.0000000  0.00    0.0009414    0.0020795   -0.0000000
 H   -0.8631026   -9.2504260    0.0000000  0.00   -0.0010189    0.0013812   -0.0000000
