148
 Energy =   -4513.4161160940
 C    7.1245128   -6.0962404    0.0000000  0.00   -0.0000506    0.0001397   -0.0000000
 C    5.6892489   -6.0570057    0.0000000  0.00   -0.0003314    0.0017865   -0.0000000
 C    7.7857701   -7.3458996    0.0000000  0.00    0.0007049    0.0006798   -0.0000000
 C    4.9659363   -7.2667573    0.0000000  0.00    0.0000288   -0.0006130   -0.0000000
 C    7.0622470   -8.5148171    0.0000000  0.00    0.0006849    0.0009915   -0.0000000
 C    5.6680126   -8.4786681    0.0000000  0.00   -0.0005035    0.0007133   -0.0000000
 C    7.2031992   -3.6624166    0.0000000  0.00   -0.0008247   -0.0004130   -0.0000000
 C    5.7583291   -3.6292098    0.0000000  0.00    0.0000280    0.0005401   -0.0000000
 C    7.8464307   -4.9005520    0.0000000  0.00   -0.0007969   -0.0005652   -0.0000000
 C    5.0034373   -4.8084066    0.0000000  0.00   -0.0016032    0.0006725   -0.0000000
 C    7.2911288   -1.2273733    0.0000000  0.00    0.0001274   -0.0010003   -0.0000000
 C    5.8528571   -1.2193817    0.0000000  0.00    0.0010381    0.0000269   -0.0000000
 C    7.9348100   -2.4656501    0.0000000  0.00    0.0001274    0.0003382   -0.0000000
 C    5.0857971   -2.3951680    0.0000000  0.00   -0.0011470   -0.0001176   -0.0000000
 C    7.9749595    0.0000000    0.0000000  0.00   -0.0002524   -0.0000000   -0.0000000
 C    5.1740351    0.0000000    0.0000000  0.00   -0.0031223   -0.0000000   -0.0000000
 C    3.5657468   -4.7406851    0.0000000  0.00    0.0022078   -0.0012514   -0.0000000
 C    2.8381874   -5.9451538    0.0000000  0.00   -0.0009790   -0.0008832   -0.0000000
 C    3.5187375   -7.1969795    0.0000000  0.00    0.0021845   -0.0003633   -0.0000000
 C    3.6472425   -2.3472250    0.0000000  0.00    0.0009257    0.0003203   -0.0000000
 C    2.8681485   -3.5013433    0.0000000  0.00   -0.0006057   -0.0008758   -0.0000000
 C    3.7828214    0.0000000    0.0000000  0.00    0.0012850   -0.0000000   -0.0000000
 C    2.9845248   -1.1235520    0.0000000  0.00    0.0013477   -0.0003990   -0.0000000
 C    1.4172212   -5.8546785    0.0000000  0.00    0.0016485    0.0005163   -0.0000000
 C    0.7140932   -7.0778812    0.0000000  0.00    0.0005898   -0.0006781   -0.0000000
 C    2.7638324   -8.3649104    0.0000000  0.00    0.0011868    0.0003578   -0.0000000
 C    1.4037513   -8.2991173    0.0000000  0.00   -0.0007745   -0.0009353   -0.0000000
 C    1.4228792   -3.3383315    0.0000000  0.00    0.0005891   -0.0002767   -0.0000000
 C    0.7135466   -4.5769497    0.0000000  0.00    0.0000222   -0.0007812   -0.0000000
 C    1.5818536   -0.7991991    0.0000000  0.00    0.0005158   -0.0004106   -0.0000000
 C    0.7362880   -1.9959759    0.0000000  0.00    0.0006186    0.0000724   -0.0000000
 H    8.8696110   -7.3645369    0.0000000  0.00    0.0010109    0.0010975   -0.0000000
 H    7.5706176   -9.4720822    0.0000000  0.00    0.0001190    0.0015557   -0.0000000
 H    5.1375073   -9.4195828    0.0000000  0.00    0.0005871   -0.0001613   -0.0000000
 H    8.9307247   -4.9351911    0.0000000  0.00   -0.0012414   -0.0016674   -0.0000000
 H    9.0185849   -2.5100538    0.0000000  0.00    0.0000283   -0.0019107   -0.0000000
 H    9.0596342    0.0000000    0.0000000  0.00   -0.0006475   -0.0000000   -0.0000000
 H    3.2378109   -9.3348054    0.0000000  0.00   -0.0001843   -0.0009559   -0.0000000
 H    0.8657639   -9.2314271    0.0000000  0.00    0.0002136    0.0008181   -0.0000000
 C   -7.1245128    6.0962404    0.0000000  0.00    0.0000506   -0.0001397   -0.0000000
 C   -5.6892489    6.0570057    0.0000000  0.00    0.0003314   -0.0017865   -0.0000000
 C   -7.7857701    7.3458996    0.0000000  0.00   -0.0007049   -0.0006798   -0.0000000
 C   -4.9659363    7.2667573    0.0000000  0.00   -0.0000288    0.0006130   -0.0000000
 C   -7.0622470    8.5148171    0.0000000  0.00   -0.0006849   -0.0009915   -0.0000000
 C   -5.6680126    8.4786681    0.0000000  0.00    0.0005035   -0.0007133   -0.0000000
 C   -7.2031992    3.6624166    0.0000000  0.00    0.0008247    0.0004130   -0.0000000
 C   -5.7583291    3.6292098    0.0000000  0.00   -0.0000280   -0.0005401   -0.0000000
 C   -7.8464307    4.9005520    0.0000000  0.00    0.0007969    0.0005652   -0.0000000
 C   -5.0034373    4.8084066    0.0000000  0.00    0.0016032   -0.0006725   -0.0000000
 C   -7.2911288    1.2273733    0.0000000  0.00   -0.0001274    0.0010003   -0.0000000
 C   -5.8528571    1.2193817    0.0000000  0.00   -0.0010381   -0.0000269   -0.0000000
 C   -7.9348100    2.4656501    0.0000000  0.00   -0.0001274   -0.0003382   -0.0000000
 C   -5.0857971    2.3951680    0.0000000  0.00    0.0011470    0.0001176   -0.0000000
 C   -7.9749595    0.0000000    0.0000000  0.00    0.0002524   -0.0000000   -0.0000000
 C   -5.1740351    0.0000000    0.0000000  0.00    0.0031223   -0.0000000   -0.0000000
 C   -3.5657468    4.7406851    0.0000000  0.00   -0.0022078    0.0012514   -0.0000000
 C   -2.8381874    5.9451538    0.0000000  0.00    0.0009790    0.0008832   -0.0000000
 C   -3.5187375    7.1969795    0.0000000  0.00   -0.0021845    0.0003633   -0.0000000
 C   -3.6472425    2.3472250    0.0000000  0.00   -0.0009257   -0.0003203   -0.0000000
 C   -2.8681485    3.5013433    0.0000000  0.00    0.0006057    0.0008758   -0.0000000
 C   -3.7828214    0.0000000    0.0000000  0.00   -0.0012850   -0.0000000   -0.0000000
 C   -2.9845248    1.1235520    0.0000000  0.00   -0.0013477    0.0003990   -0.0000000
 C   -1.4172212    5.8546785    0.0000000  0.00   -0.0016485   -0.0005163   -0.0000000
 C   -0.7140932    7.0778812    0.0000000  0.00   -0.0005898    0.0006781   -0.0000000
 C   -2.7638324    8.3649104    0.0000000  0.00   -0.0011868   -0.0003578   -0.0000000
 C   -1.4037513    8.2991173    0.0000000  0.00    0.0007745    0.0009353   -0.0000000
 C   -1.4228792    3.3383315    0.0000000  0.00   -0.0005891    0.0002767   -0.0000000
 C   -0.7135466    4.5769497    0.0000000  0.00   -0.0000222    0.0007812   -0.0000000
 C   -1.5818536    0.7991991    0.0000000  0.00   -0.0005158    0.0004106   -0.0000000
 C   -0.7362880    1.9959759    0.0000000  0.00   -0.0006186   -0.0000724   -0.0000000
 H   -8.8696110    7.3645369    0.0000000  0.00   -0.0010109   -0.0010975   -0.0000000
 H   -7.5706176    9.4720822    0.0000000  0.00   -0.0001190   -0.0015557   -0.0000000
 H   -5.1375073    9.4195828    0.0000000  0.00   -0.0005871    0.0001613   -0.0000000
 H   -8.9307247    4.9351911    0.0000000  0.00    0.0012414    0.0016674   -0.0000000
 H   -9.0185849    2.5100538    0.0000000  0.00   -0.0000283    0.0019107   -0.0000000
 H   -9.0596342    0.0000000    0.0000000  0.00    0.0006475   -0.0000000   -0.0000000
 H   -3.2378109    9.3348054    0.0000000  0.00    0.0001843    0.0009559   -0.0000000
 H   -0.8657639    9.2314271    0.0000000  0.00   -0.0002136   -0.0008181   -0.0000000
 C    7.1245128    6.0962404    0.0000000  0.00   -0.0000506   -0.0001397   -0.0000000
 C    5.6892489    6.0570057    0.0000000  0.00   -0.0003314   -0.0017865   -0.0000000
 C    7.7857701    7.3458996    0.0000000  0.00    0.0007049   -0.0006798   -0.0000000
 C    4.9659363    7.2667573    0.0000000  0.00    0.0000288    0.0006130   -0.0000000
 C    7.0622470    8.5148171    0.0000000  0.00    0.0006849   -0.0009915   -0.0000000
 C    5.6680126    8.4786681    0.0000000  0.00   -0.0005035   -0.0007133   -0.0000000
 C    7.2031992    3.6624166    0.0000000  0.00   -0.0008247    0.0004130   -0.0000000
 C    5.7583291    3.6292098    0.0000000  0.00    0.0000280   -0.0005401   -0.0000000
 C    7.8464307    4.9005520    0.0000000  0.00   -0.0007969    0.0005652   -0.0000000
 C    5.0034373    4.8084066    0.0000000  0.00   -0.0016032   -0.0006725   -0.0000000
 C    7.2911288    1.2273733    0.0000000  0.00    0.0001274    0.0010003   -0.0000000
 C    5.8528571    1.2193817    0.0000000  0.00    0.0010381   -0.0000269   -0.0000000
 C    7.9348100    2.4656501    0.0000000  0.00    0.0001274   -0.0003382   -0.0000000
 C    5.0857971    2.3951680    0.0000000  0.00   -0.0011470    0.0001176   -0.0000000
 C    3.5657468    4.7406851    0.0000000  0.00    0.0022078    0.0012514   -0.0000000
 C    2.8381874    5.9451538    0.0000000  0.00   -0.0009790    0.0008832   -0.0000000
 C    3.5187375    7.1969795    0.0000000  0.00    0.0021845    0.0003633   -0.0000000
 C    3.6472425    2.3472250    0.0000000  0.00    0.0009257   -0.0003203   -0.0000000
 C    2.8681485    3.5013433    0.0000000  0.00   -0.0006057    0.0008758   -0.0000000
 C    2.9845248    1.1235520    0.0000000  0.00    0.0013477    0.0003990   -0.0000000
 C    1.4172212    5.8546785    0.0000000  0.00    0.0016485   -0.0005163   -0.0000000
 C    0.7140932    7.0778812    0.0000000  0.00    0.0005898    0.0006781   -0.0000000
 C    2.7638324    8.3649104    0.0000000  0.00    0.0011868   -0.0003578   -0.0000000
 C    1.4037513    8.2991173    0.0000000  0.00   -0.0007745    0.0009353   -0.0000000
 C    1.4228792    3.3383315    0.0000000  0.00    0.0005891    0.0002767   -0.0000000
 C    0.7135466    4.5769497    0.0000000  0.00    0.0000222    0.0007812   -0.0000000
 C    1.5818536    0.7991991    0.0000000  0.00    0.0005158    0.0004106   -0.0000000
 C    0.7362880    1.9959759    0.0000000  0.00    0.0006186   -0.0000724   -0.0000000
 H    8.8696110    7.3645369    0.0000000  0.00    0.0010109   -0.0010975   -0.0000000
 H    7.5706176    9.4720822    0.0000000  0.00    0.0001190   -0.0015557   -0.0000000
 H    5.1375073    9.4195828    0.0000000  0.00    0.0005871    0.0001613   -0.0000000
 H    8.9307247    4.9351911    0.0000000  0.00   -0.0012414    0.0016674   -0.0000000
 H    9.0185849    2.5100538    0.0000000  0.00    0.0000283    0.0019107   -0.0000000
 H    3.2378109    9.3348054    0.0000000  0.00   -0.0001843    0.0009559   -0.0000000
 H    0.8657639    9.2314271    0.0000000  0.00    0.0002136   -0.0008181   -0.0000000
 C   -7.1245128   -6.0962404    0.0000000  0.00    0.0000506    0.0001397   -0.0000000
 C   -5.6892489   -6.0570057    0.0000000  0.00    0.0003314    0.0017865   -0.0000000
 C   -7.7857701   -7.3458996    0.0000000  0.00   -0.0007049    0.0006798   -0.0000000
 C   -4.9659363   -7.2667573    0.0000000  0.00   -0.0000288   -0.0006130   -0.0000000
 C   -7.0622470   -8.5148171    0.0000000  0.00   -0.0006849    0.0009915   -0.0000000
 C   -5.6680126   -8.4786681    0.0000000  0.00    0.0005035    0.0007133   -0.0000000
 C   -7.2031992   -3.6624166    0.0000000  0.00    0.0008247   -0.0004130   -0.0000000
 C   -5.7583291   -3.6292098    0.0000000  0.00   -0.0000280    0.0005401   -0.0000000
 C   -7.8464307   -4.9005520    0.0000000  0.00    0.0007969   -0.0005652   -0.0000000
 C   -5.0034373   -4.8084066    0.0000000  0.00    0.0016032    0.0006725   -0.0000000
 C   -7.2911288   -1.2273733    0.0000000  0.00   -0.0001274   -0.0010003   -0.0000000
 C   -5.8528571   -1.2193817    0.0000000  0.00   -0.0010381    0.0000269   -0.0000000
 C   -7.9348100   -2.4656501    0.0000000  0.00   -0.0001274    0.0003382   -0.0000000
 C   -5.0857971   -2.3951680    0.0000000  0.00    0.0011470   -0.0001176   -0.0000000
 C   -3.5657468   -4.7406851    0.0000000  0.00   -0.0022078   -0.0012514   -0.0000000
 C   -2.8381874   -5.9451538    0.0000000  0.00    0.0009790   -0.0008832   -0.0000000
 C   -3.5187375   -7.1969795    0.0000000  0.00   -0.0021845   -0.0003633   -0.0000000
 C   -3.6472425   -2.3472250    0.0000000  0.00   -0.0009257    0.0003203   -0.0000000
 C   -2.8681485   -3.5013433    0.0000000  0.00    0.0006057   -0.0008758   -0.0000000
 C   -2.9845248   -1.1235520    0.0000000  0.00   -0.0013477   -0.0003990   -0.0000000
 C   -1.4172212   -5.8546785    0.0000000  0.00   -0.0016485    0.0005163   -0.0000000
 C   -0.7140932   -7.0778812    0.0000000  0.00   -0.0005898   -0.0006781   -0.0000000
 C   -2.7638324   -8.3649104    0.0000000  0.00   -0.0011868    0.0003578   -0.0000000
 C   -1.4037513   -8.2991173    0.0000000  0.00    0.0007745   -0.0009353   -0.0000000
 C   -1.4228792   -3.3383315    0.0000000  0.00   -0.0005891   -0.0002767   -0.0000000
 C   -0.7135466   -4.5769497    0.0000000  0.00   -0.0000222   -0.0007812   -0.0000000
 C   -1.5818536   -0.7991991    0.0000000  0.00   -0.0005158   -0.0004106   -0.0000000
 C   -0.7362880   -1.9959759    0.0000000  0.00   -0.0006186    0.0000724   -0.0000000
 H   -8.8696110   -7.3645369    0.0000000  0.00   -0.0010109    0.0010975   -0.0000000
 H   -7.5706176   -9.4720822    0.0000000  0.00   -0.0001190    0.0015557   -0.0000000
 H   -5.1375073   -9.4195828    0.0000000  0.00   -0.0005871   -0.0001613   -0.0000000
 H   -8.9307247   -4.9351911    0.0000000  0.00    0.0012414   -0.0016674   -0.0000000
 H   -9.0185849   -2.5100538    0.0000000  0.00   -0.0000283   -0.0019107   -0.0000000
 H   -3.2378109   -9.3348054    0.0000000  0.00    0.0001843   -0.0009559   -0.0000000
 H   -0.8657639   -9.2314271    0.0000000  0.00   -0.0002136    0.0008181   -0.0000000
