148
 Energy =   -4513.2386108250
 C    7.1237685   -6.0851471    0.0000000  0.00    0.0004119    0.0000321   -0.0000000
 C    5.6883103   -6.0473520    0.0000000  0.00    0.0002046    0.0001547   -0.0000000
 C    7.7936468   -7.3303074    0.0000000  0.00   -0.0002464   -0.0002227   -0.0000000
 C    4.9684472   -7.2605801    0.0000000  0.00   -0.0002383    0.0001026   -0.0000000
 C    7.0740341   -8.4979645    0.0000000  0.00   -0.0001455   -0.0006363   -0.0000000
 C    5.6794742   -8.4661301    0.0000000  0.00    0.0002709   -0.0000556   -0.0000000
 C    7.1965524   -3.6587988    0.0000000  0.00    0.0004046    0.0000256   -0.0000000
 C    5.7529159   -3.6239399    0.0000000  0.00    0.0001740    0.0006392   -0.0000000
 C    7.8463420   -4.8921790    0.0000000  0.00   -0.0000261    0.0002471   -0.0000000
 C    4.9989818   -4.8032673    0.0000000  0.00    0.0004185    0.0001036   -0.0000000
 C    7.2841461   -1.2280274    0.0000000  0.00    0.0000465    0.0003990   -0.0000000
 C    5.8458032   -1.2181366    0.0000000  0.00   -0.0003416   -0.0003286   -0.0000000
 C    7.9324649   -2.4628138    0.0000000  0.00   -0.0003434    0.0001424   -0.0000000
 C    5.0799720   -2.3917910    0.0000000  0.00    0.0003962    0.0005214   -0.0000000
 C    7.9710166    0.0000000    0.0000000  0.00   -0.0009278   -0.0000000   -0.0000000
 C    5.1679908    0.0000000    0.0000000  0.00    0.0004285   -0.0000000   -0.0000000
 C    3.5615095   -4.7391680    0.0000000  0.00   -0.0003669    0.0002894   -0.0000000
 C    2.8366146   -5.9449612    0.0000000  0.00    0.0007317   -0.0001068   -0.0000000
 C    3.5204220   -7.1954199    0.0000000  0.00   -0.0000047    0.0006420   -0.0000000
 C    3.6418133   -2.3459215    0.0000000  0.00   -0.0007551   -0.0005627   -0.0000000
 C    2.8641085   -3.5010240    0.0000000  0.00    0.0010448    0.0000475   -0.0000000
 C    3.7782548    0.0000000    0.0000000  0.00   -0.0009234   -0.0000000   -0.0000000
 C    2.9802332   -1.1235140    0.0000000  0.00    0.0002791    0.0006336   -0.0000000
 C    1.4164487   -5.8562990    0.0000000  0.00   -0.0005818   -0.0003901   -0.0000000
 C    0.7142298   -7.0802885    0.0000000  0.00    0.0002331   -0.0002803   -0.0000000
 C    2.7678317   -8.3650570    0.0000000  0.00    0.0000855   -0.0006426   -0.0000000
 C    1.4069919   -8.3002162    0.0000000  0.00   -0.0006374    0.0000475   -0.0000000
 C    1.4207864   -3.3391770    0.0000000  0.00   -0.0010036   -0.0003809   -0.0000000
 C    0.7126456   -4.5787271    0.0000000  0.00    0.0009713   -0.0002703   -0.0000000
 C    1.5784538   -0.7990338    0.0000000  0.00   -0.0000809   -0.0002815   -0.0000000
 C    0.7350986   -1.9969953    0.0000000  0.00    0.0002846   -0.0000157   -0.0000000
 H    8.8830805   -7.3379482    0.0000000  0.00   -0.0003351   -0.0002908   -0.0000000
 H    7.5842759   -9.4595796    0.0000000  0.00    0.0002393   -0.0008191   -0.0000000
 H    5.1556779   -9.4166439    0.0000000  0.00    0.0003581   -0.0002032   -0.0000000
 H    8.9353039   -4.9275483    0.0000000  0.00    0.0003320    0.0001407   -0.0000000
 H    9.0182049   -2.5136423    0.0000000  0.00   -0.0001980   -0.0002192   -0.0000000
 H    9.0557973    0.0000000    0.0000000  0.00   -0.0007014   -0.0000000   -0.0000000
 H    3.2438097   -9.3363592    0.0000000  0.00    0.0004766    0.0008117   -0.0000000
 H    0.8703691   -9.2336144    0.0000000  0.00    0.0001738   -0.0008102   -0.0000000
 C   -7.1237685    6.0851471    0.0000000  0.00   -0.0004119   -0.0000321   -0.0000000
 C   -5.6883103    6.0473520    0.0000000  0.00   -0.0002046   -0.0001547   -0.0000000
 C   -7.7936468    7.3303074    0.0000000  0.00    0.0002464    0.0002227   -0.0000000
 C   -4.9684472    7.2605801    0.0000000  0.00    0.0002383   -0.0001026   -0.0000000
 C   -7.0740341    8.4979645    0.0000000  0.00    0.0001455    0.0006363   -0.0000000
 C   -5.6794742    8.4661301    0.0000000  0.00   -0.0002709    0.0000556   -0.0000000
 C   -7.1965524    3.6587988    0.0000000  0.00   -0.0004046   -0.0000256   -0.0000000
 C   -5.7529159    3.6239399    0.0000000  0.00   -0.0001740   -0.0006392   -0.0000000
 C   -7.8463420    4.8921790    0.0000000  0.00    0.0000261   -0.0002471   -0.0000000
 C   -4.9989818    4.8032673    0.0000000  0.00   -0.0004185   -0.0001036   -0.0000000
 C   -7.2841461    1.2280274    0.0000000  0.00   -0.0000465   -0.0003990   -0.0000000
 C   -5.8458032    1.2181366    0.0000000  0.00    0.0003416    0.0003286   -0.0000000
 C   -7.9324649    2.4628138    0.0000000  0.00    0.0003434   -0.0001424   -0.0000000
 C   -5.0799720    2.3917910    0.0000000  0.00   -0.0003962   -0.0005214   -0.0000000
 C   -7.9710166    0.0000000    0.0000000  0.00    0.0009278   -0.0000000   -0.0000000
 C   -5.1679908    0.0000000    0.0000000  0.00   -0.0004285   -0.0000000   -0.0000000
 C   -3.5615095    4.7391680    0.0000000  0.00    0.0003669   -0.0002894   -0.0000000
 C   -2.8366146    5.9449612    0.0000000  0.00   -0.0007317    0.0001068   -0.0000000
 C   -3.5204220    7.1954199    0.0000000  0.00    0.0000047   -0.0006420   -0.0000000
 C   -3.6418133    2.3459215    0.0000000  0.00    0.0007551    0.0005627   -0.0000000
 C   -2.8641085    3.5010240    0.0000000  0.00   -0.0010448   -0.0000475   -0.0000000
 C   -3.7782548    0.0000000    0.0000000  0.00    0.0009234   -0.0000000   -0.0000000
 C   -2.9802332    1.1235140    0.0000000  0.00   -0.0002791   -0.0006336   -0.0000000
 C   -1.4164487    5.8562990    0.0000000  0.00    0.0005818    0.0003901   -0.0000000
 C   -0.7142298    7.0802885    0.0000000  0.00   -0.0002331    0.0002803   -0.0000000
 C   -2.7678317    8.3650570    0.0000000  0.00   -0.0000855    0.0006426   -0.0000000
 C   -1.4069919    8.3002162    0.0000000  0.00    0.0006374   -0.0000475   -0.0000000
 C   -1.4207864    3.3391770    0.0000000  0.00    0.0010036    0.0003809   -0.0000000
 C   -0.7126456    4.5787271    0.0000000  0.00   -0.0009713    0.0002703   -0.0000000
 C   -1.5784538    0.7990338    0.0000000  0.00    0.0000809    0.0002815   -0.0000000
 C   -0.7350986    1.9969953    0.0000000  0.00   -0.0002846    0.0000157   -0.0000000
 H   -8.8830805    7.3379482    0.0000000  0.00    0.0003351    0.0002908   -0.0000000
 H   -7.5842759    9.4595796    0.0000000  0.00   -0.0002393    0.0008191   -0.0000000
 H   -5.1556779    9.4166439    0.0000000  0.00   -0.0003581    0.0002032   -0.0000000
 H   -8.9353039    4.9275483    0.0000000  0.00   -0.0003320   -0.0001407   -0.0000000
 H   -9.0182049    2.5136423    0.0000000  0.00    0.0001980    0.0002192   -0.0000000
 H   -9.0557973    0.0000000    0.0000000  0.00    0.0007014   -0.0000000   -0.0000000
 H   -3.2438097    9.3363592    0.0000000  0.00   -0.0004766   -0.0008117   -0.0000000
 H   -0.8703691    9.2336144    0.0000000  0.00   -0.0001738    0.0008102   -0.0000000
 C    7.1237685    6.0851471    0.0000000  0.00    0.0004119   -0.0000321   -0.0000000
 C    5.6883103    6.0473520    0.0000000  0.00    0.0002046   -0.0001547   -0.0000000
 C    7.7936468    7.3303074    0.0000000  0.00   -0.0002464    0.0002227   -0.0000000
 C    4.9684472    7.2605801    0.0000000  0.00   -0.0002383   -0.0001026   -0.0000000
 C    7.0740341    8.4979645    0.0000000  0.00   -0.0001455    0.0006363   -0.0000000
 C    5.6794742    8.4661301    0.0000000  0.00    0.0002709    0.0000556   -0.0000000
 C    7.1965524    3.6587988    0.0000000  0.00    0.0004046   -0.0000256   -0.0000000
 C    5.7529159    3.6239399    0.0000000  0.00    0.0001740   -0.0006392   -0.0000000
 C    7.8463420    4.8921790    0.0000000  0.00   -0.0000261   -0.0002471   -0.0000000
 C    4.9989818    4.8032673    0.0000000  0.00    0.0004185   -0.0001036   -0.0000000
 C    7.2841461    1.2280274    0.0000000  0.00    0.0000465   -0.0003990   -0.0000000
 C    5.8458032    1.2181366    0.0000000  0.00   -0.0003416    0.0003286   -0.0000000
 C    7.9324649    2.4628138    0.0000000  0.00   -0.0003434   -0.0001424   -0.0000000
 C    5.0799720    2.3917910    0.0000000  0.00    0.0003962   -0.0005214   -0.0000000
 C    3.5615095    4.7391680    0.0000000  0.00   -0.0003669   -0.0002894   -0.0000000
 C    2.8366146    5.9449612    0.0000000  0.00    0.0007317    0.0001068   -0.0000000
 C    3.5204220    7.1954199    0.0000000  0.00   -0.0000047   -0.0006420   -0.0000000
 C    3.6418133    2.3459215    0.0000000  0.00   -0.0007551    0.0005627   -0.0000000
 C    2.8641085    3.5010240    0.0000000  0.00    0.0010448   -0.0000475   -0.0000000
 C    2.9802332    1.1235140    0.0000000  0.00    0.0002791   -0.0006336   -0.0000000
 C    1.4164487    5.8562990    0.0000000  0.00   -0.0005818    0.0003901   -0.0000000
 C    0.7142298    7.0802885    0.0000000  0.00    0.0002331    0.0002803   -0.0000000
 C    2.7678317    8.3650570    0.0000000  0.00    0.0000855    0.0006426   -0.0000000
 C    1.4069919    8.3002162    0.0000000  0.00   -0.0006374   -0.0000475   -0.0000000
 C    1.4207864    3.3391770    0.0000000  0.00   -0.0010036    0.0003809   -0.0000000
 C    0.7126456    4.5787271    0.0000000  0.00    0.0009713    0.0002703   -0.0000000
 C    1.5784538    0.7990338    0.0000000  0.00   -0.0000809    0.0002815   -0.0000000
 C    0.7350986    1.9969953    0.0000000  0.00    0.0002846    0.0000157   -0.0000000
 H    8.8830805    7.3379482    0.0000000  0.00   -0.0003351    0.0002908   -0.0000000
 H    7.5842759    9.4595796    0.0000000  0.00    0.0002393    0.0008191   -0.0000000
 H    5.1556779    9.4166439    0.0000000  0.00    0.0003581    0.0002032   -0.0000000
 H    8.9353039    4.9275483    0.0000000  0.00    0.0003320   -0.0001407   -0.0000000
 H    9.0182049    2.5136423    0.0000000  0.00   -0.0001980    0.0002192   -0.0000000
 H    3.2438097    9.3363592    0.0000000  0.00    0.0004766   -0.0008117   -0.0000000
 H    0.8703691    9.2336144    0.0000000  0.00    0.0001738    0.0008102   -0.0000000
 C   -7.1237685   -6.0851471    0.0000000  0.00   -0.0004119    0.0000321   -0.0000000
 C   -5.6883103   -6.0473520    0.0000000  0.00   -0.0002046    0.0001547   -0.0000000
 C   -7.7936468   -7.3303074    0.0000000  0.00    0.0002464   -0.0002227   -0.0000000
 C   -4.9684472   -7.2605801    0.0000000  0.00    0.0002383    0.0001026   -0.0000000
 C   -7.0740341   -8.4979645    0.0000000  0.00    0.0001455   -0.0006363   -0.0000000
 C   -5.6794742   -8.4661301    0.0000000  0.00   -0.0002709   -0.0000556   -0.0000000
 C   -7.1965524   -3.6587988    0.0000000  0.00   -0.0004046    0.0000256   -0.0000000
 C   -5.7529159   -3.6239399    0.0000000  0.00   -0.0001740    0.0006392   -0.0000000
 C   -7.8463420   -4.8921790    0.0000000  0.00    0.0000261    0.0002471   -0.0000000
 C   -4.9989818   -4.8032673    0.0000000  0.00   -0.0004185    0.0001036   -0.0000000
 C   -7.2841461   -1.2280274    0.0000000  0.00   -0.0000465    0.0003990   -0.0000000
 C   -5.8458032   -1.2181366    0.0000000  0.00    0.0003416   -0.0003286   -0.0000000
 C   -7.9324649   -2.4628138    0.0000000  0.00    0.0003434    0.0001424   -0.0000000
 C   -5.0799720   -2.3917910    0.0000000  0.00   -0.0003962    0.0005214   -0.0000000
 C   -3.5615095   -4.7391680    0.0000000  0.00    0.0003669    0.0002894   -0.0000000
 C   -2.8366146   -5.9449612    0.0000000  0.00   -0.0007317   -0.0001068   -0.0000000
 C   -3.5204220   -7.1954199    0.0000000  0.00    0.0000047    0.0006420   -0.0000000
 C   -3.6418133   -2.3459215    0.0000000  0.00    0.0007551   -0.0005627   -0.0000000
 C   -2.8641085   -3.5010240    0.0000000  0.00   -0.0010448    0.0000475   -0.0000000
 C   -2.9802332   -1.1235140    0.0000000  0.00   -0.0002791    0.0006336   -0.0000000
 C   -1.4164487   -5.8562990    0.0000000  0.00    0.0005818   -0.0003901   -0.0000000
 C   -0.7142298   -7.0802885    0.0000000  0.00   -0.0002331   -0.0002803   -0.0000000
 C   -2.7678317   -8.3650570    0.0000000  0.00   -0.0000855   -0.0006426   -0.0000000
 C   -1.4069919   -8.3002162    0.0000000  0.00    0.0006374    0.0000475   -0.0000000
 C   -1.4207864   -3.3391770    0.0000000  0.00    0.0010036   -0.0003809   -0.0000000
 C   -0.7126456   -4.5787271    0.0000000  0.00   -0.0009713   -0.0002703   -0.0000000
 C   -1.5784538   -0.7990338    0.0000000  0.00    0.0000809   -0.0002815   -0.0000000
 C   -0.7350986   -1.9969953    0.0000000  0.00   -0.0002846   -0.0000157   -0.0000000
 H   -8.8830805   -7.3379482    0.0000000  0.00    0.0003351   -0.0002908   -0.0000000
 H   -7.5842759   -9.4595796    0.0000000  0.00   -0.0002393   -0.0008191   -0.0000000
 H   -5.1556779   -9.4166439    0.0000000  0.00   -0.0003581   -0.0002032   -0.0000000
 H   -8.9353039   -4.9275483    0.0000000  0.00   -0.0003320    0.0001407   -0.0000000
 H   -9.0182049   -2.5136423    0.0000000  0.00    0.0001980   -0.0002192   -0.0000000
 H   -3.2438097   -9.3363592    0.0000000  0.00   -0.0004766    0.0008117   -0.0000000
 H   -0.8703691   -9.2336144    0.0000000  0.00   -0.0001738   -0.0008102   -0.0000000
