148
 Energy =   -4513.3694939990
 C    7.1174299   -6.1064279    0.0000000  0.00    0.0007204    0.0034317   -0.0000000
 C    5.6838796   -6.0683690    0.0000000  0.00   -0.0021762   -0.0007485   -0.0000000
 C    7.7755207   -7.3537441    0.0000000  0.00    0.0001830    0.0003627   -0.0000000
 C    4.9598143   -7.2730438    0.0000000  0.00    0.0012146   -0.0003827   -0.0000000
 C    7.0493687   -8.5267332    0.0000000  0.00   -0.0024704    0.0004412   -0.0000000
 C    5.6601924   -8.4934807    0.0000000  0.00    0.0007438    0.0007021   -0.0000000
 C    7.2020474   -3.6679794    0.0000000  0.00    0.0004244    0.0021719   -0.0000000
 C    5.7586021   -3.6336122    0.0000000  0.00   -0.0017344   -0.0039010   -0.0000000
 C    7.8398902   -4.9078576    0.0000000  0.00   -0.0009906   -0.0003068   -0.0000000
 C    4.9992426   -4.8141196    0.0000000  0.00   -0.0002250    0.0036378   -0.0000000
 C    7.2962981   -1.2285707    0.0000000  0.00   -0.0021744   -0.0003057   -0.0000000
 C    5.8606178   -1.2196500    0.0000000  0.00    0.0002118   -0.0006628   -0.0000000
 C    7.9333150   -2.4720445    0.0000000  0.00   -0.0004937    0.0011081   -0.0000000
 C    5.0881791   -2.4011774    0.0000000  0.00    0.0004083    0.0031204   -0.0000000
 C    7.9781103    0.0000000    0.0000000  0.00    0.0013731   -0.0000000   -0.0000000
 C    5.1809499    0.0000000    0.0000000  0.00    0.0016073   -0.0000000   -0.0000000
 C    3.5682470   -4.7441589    0.0000000  0.00   -0.0022899   -0.0022515   -0.0000000
 C    2.8382847   -5.9484031    0.0000000  0.00   -0.0023322    0.0007455   -0.0000000
 C    3.5167121   -7.1990678    0.0000000  0.00   -0.0000374   -0.0004595   -0.0000000
 C    3.6520397   -2.3518648    0.0000000  0.00   -0.0000622   -0.0001570   -0.0000000
 C    2.8708027   -3.4996779    0.0000000  0.00   -0.0006916    0.0015597   -0.0000000
 C    3.7889061    0.0000000    0.0000000  0.00   -0.0007357   -0.0000000   -0.0000000
 C    2.9889431   -1.1210304    0.0000000  0.00    0.0015393    0.0002218   -0.0000000
 C    1.4180841   -5.8556957    0.0000000  0.00   -0.0007350   -0.0010752   -0.0000000
 C    0.7138340   -7.0747585    0.0000000  0.00    0.0002179   -0.0000965   -0.0000000
 C    2.7586982   -8.3691895    0.0000000  0.00   -0.0030229    0.0008349   -0.0000000
 C    1.4013980   -8.3015641    0.0000000  0.00    0.0013889    0.0010844   -0.0000000
 C    1.4236366   -3.3351552    0.0000000  0.00    0.0009984   -0.0005768   -0.0000000
 C    0.7143597   -4.5729674    0.0000000  0.00   -0.0005756   -0.0003206   -0.0000000
 C    1.5819992   -0.7937152    0.0000000  0.00    0.0006597    0.0029940   -0.0000000
 C    0.7363131   -1.9935796    0.0000000  0.00   -0.0006763   -0.0018455   -0.0000000
 H    8.8594461   -7.3742480    0.0000000  0.00   -0.0021417   -0.0003879   -0.0000000
 H    7.5608170   -9.4824605    0.0000000  0.00   -0.0008568    0.0004073   -0.0000000
 H    5.1282393   -9.4329974    0.0000000  0.00   -0.0009306   -0.0023154   -0.0000000
 H    8.9239232   -4.9452859    0.0000000  0.00    0.0005733   -0.0002711   -0.0000000
 H    9.0168414   -2.5200934    0.0000000  0.00   -0.0004598    0.0007068   -0.0000000
 H    9.0626570    0.0000000    0.0000000  0.00   -0.0029052   -0.0000000   -0.0000000
 H    3.2327378   -9.3388388    0.0000000  0.00   -0.0002215    0.0004188   -0.0000000
 H    0.8612893   -9.2319873    0.0000000  0.00   -0.0001581   -0.0007839   -0.0000000
 C   -7.1174299    6.1064279    0.0000000  0.00   -0.0007204   -0.0034317   -0.0000000
 C   -5.6838796    6.0683690    0.0000000  0.00    0.0021762    0.0007485   -0.0000000
 C   -7.7755207    7.3537441    0.0000000  0.00   -0.0001830   -0.0003627   -0.0000000
 C   -4.9598143    7.2730438    0.0000000  0.00   -0.0012146    0.0003827   -0.0000000
 C   -7.0493687    8.5267332    0.0000000  0.00    0.0024704   -0.0004412   -0.0000000
 C   -5.6601924    8.4934807    0.0000000  0.00   -0.0007438   -0.0007021   -0.0000000
 C   -7.2020474    3.6679794    0.0000000  0.00   -0.0004244   -0.0021719   -0.0000000
 C   -5.7586021    3.6336122    0.0000000  0.00    0.0017344    0.0039010   -0.0000000
 C   -7.8398902    4.9078576    0.0000000  0.00    0.0009906    0.0003068   -0.0000000
 C   -4.9992426    4.8141196    0.0000000  0.00    0.0002250   -0.0036378   -0.0000000
 C   -7.2962981    1.2285707    0.0000000  0.00    0.0021744    0.0003057   -0.0000000
 C   -5.8606178    1.2196500    0.0000000  0.00   -0.0002118    0.0006628   -0.0000000
 C   -7.9333150    2.4720445    0.0000000  0.00    0.0004937   -0.0011081   -0.0000000
 C   -5.0881791    2.4011774    0.0000000  0.00   -0.0004083   -0.0031204   -0.0000000
 C   -7.9781103    0.0000000    0.0000000  0.00   -0.0013731   -0.0000000   -0.0000000
 C   -5.1809499    0.0000000    0.0000000  0.00   -0.0016073   -0.0000000   -0.0000000
 C   -3.5682470    4.7441589    0.0000000  0.00    0.0022899    0.0022515   -0.0000000
 C   -2.8382847    5.9484031    0.0000000  0.00    0.0023322   -0.0007455   -0.0000000
 C   -3.5167121    7.1990678    0.0000000  0.00    0.0000374    0.0004595   -0.0000000
 C   -3.6520397    2.3518648    0.0000000  0.00    0.0000622    0.0001570   -0.0000000
 C   -2.8708027    3.4996779    0.0000000  0.00    0.0006916   -0.0015597   -0.0000000
 C   -3.7889061    0.0000000    0.0000000  0.00    0.0007357   -0.0000000   -0.0000000
 C   -2.9889431    1.1210304    0.0000000  0.00   -0.0015393   -0.0002218   -0.0000000
 C   -1.4180841    5.8556957    0.0000000  0.00    0.0007350    0.0010752   -0.0000000
 C   -0.7138340    7.0747585    0.0000000  0.00   -0.0002179    0.0000965   -0.0000000
 C   -2.7586982    8.3691895    0.0000000  0.00    0.0030229   -0.0008349   -0.0000000
 C   -1.4013980    8.3015641    0.0000000  0.00   -0.0013889   -0.0010844   -0.0000000
 C   -1.4236366    3.3351552    0.0000000  0.00   -0.0009984    0.0005768   -0.0000000
 C   -0.7143597    4.5729674    0.0000000  0.00    0.0005756    0.0003206   -0.0000000
 C   -1.5819992    0.7937152    0.0000000  0.00   -0.0006597   -0.0029940   -0.0000000
 C   -0.7363131    1.9935796    0.0000000  0.00    0.0006763    0.0018455   -0.0000000
 H   -8.8594461    7.3742480    0.0000000  0.00    0.0021417    0.0003879   -0.0000000
 H   -7.5608170    9.4824605    0.0000000  0.00    0.0008568   -0.0004073   -0.0000000
 H   -5.1282393    9.4329974    0.0000000  0.00    0.0009306    0.0023154   -0.0000000
 H   -8.9239232    4.9452859    0.0000000  0.00   -0.0005733    0.0002711   -0.0000000
 H   -9.0168414    2.5200934    0.0000000  0.00    0.0004598   -0.0007068   -0.0000000
 H   -9.0626570    0.0000000    0.0000000  0.00    0.0029052   -0.0000000   -0.0000000
 H   -3.2327378    9.3388388    0.0000000  0.00    0.0002215   -0.0004188   -0.0000000
 H   -0.8612893    9.2319873    0.0000000  0.00    0.0001581    0.0007839   -0.0000000
 C    7.1174299    6.1064279    0.0000000  0.00    0.0007204   -0.0034317   -0.0000000
 C    5.6838796    6.0683690    0.0000000  0.00   -0.0021762    0.0007485   -0.0000000
 C    7.7755207    7.3537441    0.0000000  0.00    0.0001830   -0.0003627   -0.0000000
 C    4.9598143    7.2730438    0.0000000  0.00    0.0012146    0.0003827   -0.0000000
 C    7.0493687    8.5267332    0.0000000  0.00   -0.0024704   -0.0004412   -0.0000000
 C    5.6601924    8.4934807    0.0000000  0.00    0.0007438   -0.0007021   -0.0000000
 C    7.2020474    3.6679794    0.0000000  0.00    0.0004244   -0.0021719   -0.0000000
 C    5.7586021    3.6336122    0.0000000  0.00   -0.0017344    0.0039010   -0.0000000
 C    7.8398902    4.9078576    0.0000000  0.00   -0.0009906    0.0003068   -0.0000000
 C    4.9992426    4.8141196    0.0000000  0.00   -0.0002250   -0.0036378   -0.0000000
 C    7.2962981    1.2285707    0.0000000  0.00   -0.0021744    0.0003057   -0.0000000
 C    5.8606178    1.2196500    0.0000000  0.00    0.0002118    0.0006628   -0.0000000
 C    7.9333150    2.4720445    0.0000000  0.00   -0.0004937   -0.0011081   -0.0000000
 C    5.0881791    2.4011774    0.0000000  0.00    0.0004083   -0.0031204   -0.0000000
 C    3.5682470    4.7441589    0.0000000  0.00   -0.0022899    0.0022515   -0.0000000
 C    2.8382847    5.9484031    0.0000000  0.00   -0.0023322   -0.0007455   -0.0000000
 C    3.5167121    7.1990678    0.0000000  0.00   -0.0000374    0.0004595   -0.0000000
 C    3.6520397    2.3518648    0.0000000  0.00   -0.0000622    0.0001570   -0.0000000
 C    2.8708027    3.4996779    0.0000000  0.00   -0.0006916   -0.0015597   -0.0000000
 C    2.9889431    1.1210304    0.0000000  0.00    0.0015393   -0.0002218   -0.0000000
 C    1.4180841    5.8556957    0.0000000  0.00   -0.0007350    0.0010752   -0.0000000
 C    0.7138340    7.0747585    0.0000000  0.00    0.0002179    0.0000965   -0.0000000
 C    2.7586982    8.3691895    0.0000000  0.00   -0.0030229   -0.0008349   -0.0000000
 C    1.4013980    8.3015641    0.0000000  0.00    0.0013889   -0.0010844   -0.0000000
 C    1.4236366    3.3351552    0.0000000  0.00    0.0009984    0.0005768   -0.0000000
 C    0.7143597    4.5729674    0.0000000  0.00   -0.0005756    0.0003206   -0.0000000
 C    1.5819992    0.7937152    0.0000000  0.00    0.0006597   -0.0029940   -0.0000000
 C    0.7363131    1.9935796    0.0000000  0.00   -0.0006763    0.0018455   -0.0000000
 H    8.8594461    7.3742480    0.0000000  0.00   -0.0021417    0.0003879   -0.0000000
 H    7.5608170    9.4824605    0.0000000  0.00   -0.0008568   -0.0004073   -0.0000000
 H    5.1282393    9.4329974    0.0000000  0.00   -0.0009306    0.0023154   -0.0000000
 H    8.9239232    4.9452859    0.0000000  0.00    0.0005733    0.0002711   -0.0000000
 H    9.0168414    2.5200934    0.0000000  0.00   -0.0004598   -0.0007068   -0.0000000
 H    3.2327378    9.3388388    0.0000000  0.00   -0.0002215   -0.0004188   -0.0000000
 H    0.8612893    9.2319873    0.0000000  0.00   -0.0001581    0.0007839   -0.0000000
 C   -7.1174299   -6.1064279    0.0000000  0.00   -0.0007204    0.0034317   -0.0000000
 C   -5.6838796   -6.0683690    0.0000000  0.00    0.0021762   -0.0007485   -0.0000000
 C   -7.7755207   -7.3537441    0.0000000  0.00   -0.0001830    0.0003627   -0.0000000
 C   -4.9598143   -7.2730438    0.0000000  0.00   -0.0012146   -0.0003827   -0.0000000
 C   -7.0493687   -8.5267332    0.0000000  0.00    0.0024704    0.0004412   -0.0000000
 C   -5.6601924   -8.4934807    0.0000000  0.00   -0.0007438    0.0007021   -0.0000000
 C   -7.2020474   -3.6679794    0.0000000  0.00   -0.0004244    0.0021719   -0.0000000
 C   -5.7586021   -3.6336122    0.0000000  0.00    0.0017344   -0.0039010   -0.0000000
 C   -7.8398902   -4.9078576    0.0000000  0.00    0.0009906   -0.0003068   -0.0000000
 C   -4.9992426   -4.8141196    0.0000000  0.00    0.0002250    0.0036378   -0.0000000
 C   -7.2962981   -1.2285707    0.0000000  0.00    0.0021744   -0.0003057   -0.0000000
 C   -5.8606178   -1.2196500    0.0000000  0.00   -0.0002118   -0.0006628   -0.0000000
 C   -7.9333150   -2.4720445    0.0000000  0.00    0.0004937    0.0011081   -0.0000000
 C   -5.0881791   -2.4011774    0.0000000  0.00   -0.0004083    0.0031204   -0.0000000
 C   -3.5682470   -4.7441589    0.0000000  0.00    0.0022899   -0.0022515   -0.0000000
 C   -2.8382847   -5.9484031    0.0000000  0.00    0.0023322    0.0007455   -0.0000000
 C   -3.5167121   -7.1990678    0.0000000  0.00    0.0000374   -0.0004595   -0.0000000
 C   -3.6520397   -2.3518648    0.0000000  0.00    0.0000622   -0.0001570   -0.0000000
 C   -2.8708027   -3.4996779    0.0000000  0.00    0.0006916    0.0015597   -0.0000000
 C   -2.9889431   -1.1210304    0.0000000  0.00   -0.0015393    0.0002218   -0.0000000
 C   -1.4180841   -5.8556957    0.0000000  0.00    0.0007350   -0.0010752   -0.0000000
 C   -0.7138340   -7.0747585    0.0000000  0.00   -0.0002179   -0.0000965   -0.0000000
 C   -2.7586982   -8.3691895    0.0000000  0.00    0.0030229    0.0008349   -0.0000000
 C   -1.4013980   -8.3015641    0.0000000  0.00   -0.0013889    0.0010844   -0.0000000
 C   -1.4236366   -3.3351552    0.0000000  0.00   -0.0009984   -0.0005768   -0.0000000
 C   -0.7143597   -4.5729674    0.0000000  0.00    0.0005756   -0.0003206   -0.0000000
 C   -1.5819992   -0.7937152    0.0000000  0.00   -0.0006597    0.0029940   -0.0000000
 C   -0.7363131   -1.9935796    0.0000000  0.00    0.0006763   -0.0018455   -0.0000000
 H   -8.8594461   -7.3742480    0.0000000  0.00    0.0021417   -0.0003879   -0.0000000
 H   -7.5608170   -9.4824605    0.0000000  0.00    0.0008568    0.0004073   -0.0000000
 H   -5.1282393   -9.4329974    0.0000000  0.00    0.0009306   -0.0023154   -0.0000000
 H   -8.9239232   -4.9452859    0.0000000  0.00   -0.0005733   -0.0002711   -0.0000000
 H   -9.0168414   -2.5200934    0.0000000  0.00    0.0004598    0.0007068   -0.0000000
 H   -3.2327378   -9.3388388    0.0000000  0.00    0.0002215    0.0004188   -0.0000000
 H   -0.8612893   -9.2319873    0.0000000  0.00    0.0001581   -0.0007839   -0.0000000
