148
 Energy =   -4513.2371807700
 C    7.1064984   -6.1017843    0.0000000  0.00    0.0004937   -0.0018417   -0.0000000
 C    5.6742501   -6.0622521    0.0000000  0.00   -0.0008829    0.0015917   -0.0000000
 C    7.7709479   -7.3481388    0.0000000  0.00   -0.0007654   -0.0015980   -0.0000000
 C    4.9510297   -7.2722038    0.0000000  0.00   -0.0008144   -0.0004143   -0.0000000
 C    7.0483691   -8.5194781    0.0000000  0.00   -0.0006365    0.0019806   -0.0000000
 C    5.6577212   -8.4868968    0.0000000  0.00   -0.0002547   -0.0006378   -0.0000000
 C    7.1844829   -3.6697401    0.0000000  0.00    0.0016552   -0.0008405   -0.0000000
 C    5.7467669   -3.6333825    0.0000000  0.00    0.0012100    0.0023537   -0.0000000
 C    7.8284251   -4.9043426    0.0000000  0.00   -0.0008622    0.0023890   -0.0000000
 C    4.9890158   -4.8152116    0.0000000  0.00    0.0009927   -0.0030460   -0.0000000
 C    7.2793329   -1.2332362    0.0000000  0.00   -0.0001471    0.0003623   -0.0000000
 C    5.8418851   -1.2231591    0.0000000  0.00    0.0023794   -0.0001997   -0.0000000
 C    7.9216975   -2.4666808    0.0000000  0.00    0.0000774    0.0014498   -0.0000000
 C    5.0753289   -2.3985768    0.0000000  0.00   -0.0007739    0.0000114   -0.0000000
 C    7.9669887    0.0000000    0.0000000  0.00   -0.0010202   -0.0000000   -0.0000000
 C    5.1628234    0.0000000    0.0000000  0.00   -0.0028041   -0.0000000   -0.0000000
 C    3.5578021   -4.7508612    0.0000000  0.00    0.0005596    0.0002568   -0.0000000
 C    2.8316212   -5.9555741    0.0000000  0.00   -0.0000312   -0.0008760   -0.0000000
 C    3.5111809   -7.2075111    0.0000000  0.00   -0.0008727   -0.0016160   -0.0000000
 C    3.6380825   -2.3515671    0.0000000  0.00    0.0015688    0.0009445   -0.0000000
 C    2.8578670   -3.5030316    0.0000000  0.00   -0.0002834   -0.0013191   -0.0000000
 C    3.7766492    0.0000000    0.0000000  0.00    0.0025511   -0.0000000   -0.0000000
 C    2.9763920   -1.1257017    0.0000000  0.00   -0.0005130    0.0000660   -0.0000000
 C    1.4112366   -5.8669653    0.0000000  0.00   -0.0016517   -0.0016821   -0.0000000
 C    0.7090021   -7.0893208    0.0000000  0.00    0.0014150    0.0000995   -0.0000000
 C    2.7540928   -8.3846138    0.0000000  0.00   -0.0005098    0.0007842   -0.0000000
 C    1.4020867   -8.3211731    0.0000000  0.00    0.0006433    0.0000966   -0.0000000
 C    1.4208820   -3.3408022    0.0000000  0.00   -0.0014439   -0.0018337   -0.0000000
 C    0.7067877   -4.5904414    0.0000000  0.00    0.0037342   -0.0013424   -0.0000000
 C    1.5823899   -0.8058327    0.0000000  0.00   -0.0005846   -0.0009936   -0.0000000
 C    0.7351884   -2.0066247    0.0000000  0.00    0.0010572   -0.0016579   -0.0000000
 H    8.8578591   -7.3629714    0.0000000  0.00    0.0003014   -0.0011812   -0.0000000
 H    7.5582592   -9.4794784    0.0000000  0.00   -0.0002532   -0.0013234   -0.0000000
 H    5.1273180   -9.4348962    0.0000000  0.00    0.0013618    0.0004956   -0.0000000
 H    8.9137745   -4.9421411    0.0000000  0.00    0.0009750    0.0014194   -0.0000000
 H    9.0053688   -2.5157836    0.0000000  0.00    0.0005665    0.0011586   -0.0000000
 H    9.0514432    0.0000000    0.0000000  0.00   -0.0018537   -0.0000000   -0.0000000
 H    3.2245071   -9.3641477    0.0000000  0.00   -0.0008626   -0.0008978   -0.0000000
 H    0.8679683   -9.2651973    0.0000000  0.00    0.0021567    0.0024649   -0.0000000
 C   -7.1064984    6.1017843    0.0000000  0.00   -0.0004937    0.0018417   -0.0000000
 C   -5.6742501    6.0622521    0.0000000  0.00    0.0008829   -0.0015917   -0.0000000
 C   -7.7709479    7.3481388    0.0000000  0.00    0.0007654    0.0015980   -0.0000000
 C   -4.9510297    7.2722038    0.0000000  0.00    0.0008144    0.0004143   -0.0000000
 C   -7.0483691    8.5194781    0.0000000  0.00    0.0006365   -0.0019806   -0.0000000
 C   -5.6577212    8.4868968    0.0000000  0.00    0.0002547    0.0006378   -0.0000000
 C   -7.1844829    3.6697401    0.0000000  0.00   -0.0016552    0.0008405   -0.0000000
 C   -5.7467669    3.6333825    0.0000000  0.00   -0.0012100   -0.0023537   -0.0000000
 C   -7.8284251    4.9043426    0.0000000  0.00    0.0008622   -0.0023890   -0.0000000
 C   -4.9890158    4.8152116    0.0000000  0.00   -0.0009927    0.0030460   -0.0000000
 C   -7.2793329    1.2332362    0.0000000  0.00    0.0001471   -0.0003623   -0.0000000
 C   -5.8418851    1.2231591    0.0000000  0.00   -0.0023794    0.0001997   -0.0000000
 C   -7.9216975    2.4666808    0.0000000  0.00   -0.0000774   -0.0014498   -0.0000000
 C   -5.0753289    2.3985768    0.0000000  0.00    0.0007739   -0.0000114   -0.0000000
 C   -7.9669887    0.0000000    0.0000000  0.00    0.0010202   -0.0000000   -0.0000000
 C   -5.1628234    0.0000000    0.0000000  0.00    0.0028041   -0.0000000   -0.0000000
 C   -3.5578021    4.7508612    0.0000000  0.00   -0.0005596   -0.0002568   -0.0000000
 C   -2.8316212    5.9555741    0.0000000  0.00    0.0000312    0.0008760   -0.0000000
 C   -3.5111809    7.2075111    0.0000000  0.00    0.0008727    0.0016160   -0.0000000
 C   -3.6380825    2.3515671    0.0000000  0.00   -0.0015688   -0.0009445   -0.0000000
 C   -2.8578670    3.5030316    0.0000000  0.00    0.0002834    0.0013191   -0.0000000
 C   -3.7766492    0.0000000    0.0000000  0.00   -0.0025511   -0.0000000   -0.0000000
 C   -2.9763920    1.1257017    0.0000000  0.00    0.0005130   -0.0000660   -0.0000000
 C   -1.4112366    5.8669653    0.0000000  0.00    0.0016517    0.0016821   -0.0000000
 C   -0.7090021    7.0893208    0.0000000  0.00   -0.0014150   -0.0000995   -0.0000000
 C   -2.7540928    8.3846138    0.0000000  0.00    0.0005098   -0.0007842   -0.0000000
 C   -1.4020867    8.3211731    0.0000000  0.00   -0.0006433   -0.0000966   -0.0000000
 C   -1.4208820    3.3408022    0.0000000  0.00    0.0014439    0.0018337   -0.0000000
 C   -0.7067877    4.5904414    0.0000000  0.00   -0.0037342    0.0013424   -0.0000000
 C   -1.5823899    0.8058327    0.0000000  0.00    0.0005846    0.0009936   -0.0000000
 C   -0.7351884    2.0066247    0.0000000  0.00   -0.0010572    0.0016579   -0.0000000
 H   -8.8578591    7.3629714    0.0000000  0.00   -0.0003014    0.0011812   -0.0000000
 H   -7.5582592    9.4794784    0.0000000  0.00    0.0002532    0.0013234   -0.0000000
 H   -5.1273180    9.4348962    0.0000000  0.00   -0.0013618   -0.0004956   -0.0000000
 H   -8.9137745    4.9421411    0.0000000  0.00   -0.0009750   -0.0014194   -0.0000000
 H   -9.0053688    2.5157836    0.0000000  0.00   -0.0005665   -0.0011586   -0.0000000
 H   -9.0514432    0.0000000    0.0000000  0.00    0.0018537   -0.0000000   -0.0000000
 H   -3.2245071    9.3641477    0.0000000  0.00    0.0008626    0.0008978   -0.0000000
 H   -0.8679683    9.2651973    0.0000000  0.00   -0.0021567   -0.0024649   -0.0000000
 C    7.1064984    6.1017843    0.0000000  0.00    0.0004937    0.0018417   -0.0000000
 C    5.6742501    6.0622521    0.0000000  0.00   -0.0008829   -0.0015917   -0.0000000
 C    7.7709479    7.3481388    0.0000000  0.00   -0.0007654    0.0015980   -0.0000000
 C    4.9510297    7.2722038    0.0000000  0.00   -0.0008144    0.0004143   -0.0000000
 C    7.0483691    8.5194781    0.0000000  0.00   -0.0006365   -0.0019806   -0.0000000
 C    5.6577212    8.4868968    0.0000000  0.00   -0.0002547    0.0006378   -0.0000000
 C    7.1844829    3.6697401    0.0000000  0.00    0.0016552    0.0008405   -0.0000000
 C    5.7467669    3.6333825    0.0000000  0.00    0.0012100   -0.0023537   -0.0000000
 C    7.8284251    4.9043426    0.0000000  0.00   -0.0008622   -0.0023890   -0.0000000
 C    4.9890158    4.8152116    0.0000000  0.00    0.0009927    0.0030460   -0.0000000
 C    7.2793329    1.2332362    0.0000000  0.00   -0.0001471   -0.0003623   -0.0000000
 C    5.8418851    1.2231591    0.0000000  0.00    0.0023794    0.0001997   -0.0000000
 C    7.9216975    2.4666808    0.0000000  0.00    0.0000774   -0.0014498   -0.0000000
 C    5.0753289    2.3985768    0.0000000  0.00   -0.0007739   -0.0000114   -0.0000000
 C    3.5578021    4.7508612    0.0000000  0.00    0.0005596   -0.0002568   -0.0000000
 C    2.8316212    5.9555741    0.0000000  0.00   -0.0000312    0.0008760   -0.0000000
 C    3.5111809    7.2075111    0.0000000  0.00   -0.0008727    0.0016160   -0.0000000
 C    3.6380825    2.3515671    0.0000000  0.00    0.0015688   -0.0009445   -0.0000000
 C    2.8578670    3.5030316    0.0000000  0.00   -0.0002834    0.0013191   -0.0000000
 C    2.9763920    1.1257017    0.0000000  0.00   -0.0005130   -0.0000660   -0.0000000
 C    1.4112366    5.8669653    0.0000000  0.00   -0.0016517    0.0016821   -0.0000000
 C    0.7090021    7.0893208    0.0000000  0.00    0.0014150   -0.0000995   -0.0000000
 C    2.7540928    8.3846138    0.0000000  0.00   -0.0005098   -0.0007842   -0.0000000
 C    1.4020867    8.3211731    0.0000000  0.00    0.0006433   -0.0000966   -0.0000000
 C    1.4208820    3.3408022    0.0000000  0.00   -0.0014439    0.0018337   -0.0000000
 C    0.7067877    4.5904414    0.0000000  0.00    0.0037342    0.0013424   -0.0000000
 C    1.5823899    0.8058327    0.0000000  0.00   -0.0005846    0.0009936   -0.0000000
 C    0.7351884    2.0066247    0.0000000  0.00    0.0010572    0.0016579   -0.0000000
 H    8.8578591    7.3629714    0.0000000  0.00    0.0003014    0.0011812   -0.0000000
 H    7.5582592    9.4794784    0.0000000  0.00   -0.0002532    0.0013234   -0.0000000
 H    5.1273180    9.4348962    0.0000000  0.00    0.0013618   -0.0004956   -0.0000000
 H    8.9137745    4.9421411    0.0000000  0.00    0.0009750   -0.0014194   -0.0000000
 H    9.0053688    2.5157836    0.0000000  0.00    0.0005665   -0.0011586   -0.0000000
 H    3.2245071    9.3641477    0.0000000  0.00   -0.0008626    0.0008978   -0.0000000
 H    0.8679683    9.2651973    0.0000000  0.00    0.0021567   -0.0024649   -0.0000000
 C   -7.1064984   -6.1017843    0.0000000  0.00   -0.0004937   -0.0018417   -0.0000000
 C   -5.6742501   -6.0622521    0.0000000  0.00    0.0008829    0.0015917   -0.0000000
 C   -7.7709479   -7.3481388    0.0000000  0.00    0.0007654   -0.0015980   -0.0000000
 C   -4.9510297   -7.2722038    0.0000000  0.00    0.0008144   -0.0004143   -0.0000000
 C   -7.0483691   -8.5194781    0.0000000  0.00    0.0006365    0.0019806   -0.0000000
 C   -5.6577212   -8.4868968    0.0000000  0.00    0.0002547   -0.0006378   -0.0000000
 C   -7.1844829   -3.6697401    0.0000000  0.00   -0.0016552   -0.0008405   -0.0000000
 C   -5.7467669   -3.6333825    0.0000000  0.00   -0.0012100    0.0023537   -0.0000000
 C   -7.8284251   -4.9043426    0.0000000  0.00    0.0008622    0.0023890   -0.0000000
 C   -4.9890158   -4.8152116    0.0000000  0.00   -0.0009927   -0.0030460   -0.0000000
 C   -7.2793329   -1.2332362    0.0000000  0.00    0.0001471    0.0003623   -0.0000000
 C   -5.8418851   -1.2231591    0.0000000  0.00   -0.0023794   -0.0001997   -0.0000000
 C   -7.9216975   -2.4666808    0.0000000  0.00   -0.0000774    0.0014498   -0.0000000
 C   -5.0753289   -2.3985768    0.0000000  0.00    0.0007739    0.0000114   -0.0000000
 C   -3.5578021   -4.7508612    0.0000000  0.00   -0.0005596    0.0002568   -0.0000000
 C   -2.8316212   -5.9555741    0.0000000  0.00    0.0000312   -0.0008760   -0.0000000
 C   -3.5111809   -7.2075111    0.0000000  0.00    0.0008727   -0.0016160   -0.0000000
 C   -3.6380825   -2.3515671    0.0000000  0.00   -0.0015688    0.0009445   -0.0000000
 C   -2.8578670   -3.5030316    0.0000000  0.00    0.0002834   -0.0013191   -0.0000000
 C   -2.9763920   -1.1257017    0.0000000  0.00    0.0005130    0.0000660   -0.0000000
 C   -1.4112366   -5.8669653    0.0000000  0.00    0.0016517   -0.0016821   -0.0000000
 C   -0.7090021   -7.0893208    0.0000000  0.00   -0.0014150    0.0000995   -0.0000000
 C   -2.7540928   -8.3846138    0.0000000  0.00    0.0005098    0.0007842   -0.0000000
 C   -1.4020867   -8.3211731    0.0000000  0.00   -0.0006433    0.0000966   -0.0000000
 C   -1.4208820   -3.3408022    0.0000000  0.00    0.0014439   -0.0018337   -0.0000000
 C   -0.7067877   -4.5904414    0.0000000  0.00   -0.0037342   -0.0013424   -0.0000000
 C   -1.5823899   -0.8058327    0.0000000  0.00    0.0005846   -0.0009936   -0.0000000
 C   -0.7351884   -2.0066247    0.0000000  0.00   -0.0010572   -0.0016579   -0.0000000
 H   -8.8578591   -7.3629714    0.0000000  0.00   -0.0003014   -0.0011812   -0.0000000
 H   -7.5582592   -9.4794784    0.0000000  0.00    0.0002532   -0.0013234   -0.0000000
 H   -5.1273180   -9.4348962    0.0000000  0.00   -0.0013618    0.0004956   -0.0000000
 H   -8.9137745   -4.9421411    0.0000000  0.00   -0.0009750    0.0014194   -0.0000000
 H   -9.0053688   -2.5157836    0.0000000  0.00   -0.0005665    0.0011586   -0.0000000
 H   -3.2245071   -9.3641477    0.0000000  0.00    0.0008626   -0.0008978   -0.0000000
 H   -0.8679683   -9.2651973    0.0000000  0.00   -0.0021567    0.0024649   -0.0000000
