148
 Energy =   -4513.2414370650
 C    7.1174798   -6.0957918    0.0000000  0.00   -0.0024802   -0.0006921   -0.0000000
 C    5.6833804   -6.0543209    0.0000000  0.00    0.0016137   -0.0010224   -0.0000000
 C    7.7804324   -7.3448922    0.0000000  0.00    0.0003860    0.0036365   -0.0000000
 C    4.9599690   -7.2633148    0.0000000  0.00   -0.0009335   -0.0006117   -0.0000000
 C    7.0560776   -8.5115510    0.0000000  0.00    0.0006425   -0.0018134   -0.0000000
 C    5.6623184   -8.4744714    0.0000000  0.00   -0.0003282   -0.0020888   -0.0000000
 C    7.1994944   -3.6626308    0.0000000  0.00   -0.0020906    0.0004873   -0.0000000
 C    5.7557512   -3.6284262    0.0000000  0.00    0.0017240    0.0015180   -0.0000000
 C    7.8406125   -4.9020320    0.0000000  0.00    0.0002385    0.0006484   -0.0000000
 C    5.0004080   -4.8062685    0.0000000  0.00   -0.0045115   -0.0033027   -0.0000000
 C    7.2946384   -1.2275856    0.0000000  0.00   -0.0019857    0.0005794   -0.0000000
 C    5.8548130   -1.2197695    0.0000000  0.00    0.0020334   -0.0005640   -0.0000000
 C    7.9346912   -2.4681512    0.0000000  0.00    0.0001350    0.0019978   -0.0000000
 C    5.0853039   -2.3945320    0.0000000  0.00   -0.0024885    0.0002087   -0.0000000
 C    7.9782482    0.0000000    0.0000000  0.00   -0.0010883   -0.0000000   -0.0000000
 C    5.1752865    0.0000000    0.0000000  0.00   -0.0080021   -0.0000000   -0.0000000
 C    3.5626379   -4.7392247    0.0000000  0.00    0.0018970    0.0034051   -0.0000000
 C    2.8349732   -5.9449581    0.0000000  0.00   -0.0039652   -0.0018480   -0.0000000
 C    3.5138428   -7.1973673    0.0000000  0.00    0.0015589    0.0029938   -0.0000000
 C    3.6464875   -2.3460316    0.0000000  0.00    0.0044549    0.0002147   -0.0000000
 C    2.8660495   -3.4992613    0.0000000  0.00   -0.0019370   -0.0006997   -0.0000000
 C    3.7848453    0.0000000    0.0000000  0.00    0.0023612   -0.0000000   -0.0000000
 C    2.9856600   -1.1222238    0.0000000  0.00   -0.0044831    0.0037474   -0.0000000
 C    1.4154662   -5.8542405    0.0000000  0.00    0.0017964    0.0009043   -0.0000000
 C    0.7128687   -7.0769828    0.0000000  0.00   -0.0012098   -0.0012577   -0.0000000
 C    2.7591864   -8.3670562    0.0000000  0.00   -0.0004402   -0.0013298   -0.0000000
 C    1.4016060   -8.3007001    0.0000000  0.00   -0.0002798   -0.0011088   -0.0000000
 C    1.4211998   -3.3358369    0.0000000  0.00    0.0016783    0.0025257   -0.0000000
 C    0.7118648   -4.5756467    0.0000000  0.00   -0.0030078   -0.0020955   -0.0000000
 C    1.5839880   -0.7942817    0.0000000  0.00   -0.0025204    0.0027416   -0.0000000
 C    0.7340326   -1.9973451    0.0000000  0.00   -0.0006394    0.0031247   -0.0000000
 H    8.8673516   -7.3619490    0.0000000  0.00   -0.0010126    0.0005550   -0.0000000
 H    7.5614026   -9.4740623    0.0000000  0.00    0.0008963    0.0006423   -0.0000000
 H    5.1310165   -9.4221112    0.0000000  0.00    0.0001252    0.0002849   -0.0000000
 H    8.9259594   -4.9415034    0.0000000  0.00    0.0002089    0.0012486   -0.0000000
 H    9.0183898   -2.5177781    0.0000000  0.00   -0.0006550    0.0004203   -0.0000000
 H    9.0626937    0.0000000    0.0000000  0.00   -0.0006744   -0.0000000   -0.0000000
 H    3.2248253   -9.3491799    0.0000000  0.00    0.0017709    0.0016627   -0.0000000
 H    0.8691336   -9.2456873    0.0000000  0.00   -0.0008484    0.0007517   -0.0000000
 C   -7.1174798    6.0957918    0.0000000  0.00    0.0024802    0.0006921   -0.0000000
 C   -5.6833804    6.0543209    0.0000000  0.00   -0.0016137    0.0010224   -0.0000000
 C   -7.7804324    7.3448922    0.0000000  0.00   -0.0003860   -0.0036365   -0.0000000
 C   -4.9599690    7.2633148    0.0000000  0.00    0.0009335    0.0006117   -0.0000000
 C   -7.0560776    8.5115510    0.0000000  0.00   -0.0006425    0.0018134   -0.0000000
 C   -5.6623184    8.4744714    0.0000000  0.00    0.0003282    0.0020888   -0.0000000
 C   -7.1994944    3.6626308    0.0000000  0.00    0.0020906   -0.0004873   -0.0000000
 C   -5.7557512    3.6284262    0.0000000  0.00   -0.0017240   -0.0015180   -0.0000000
 C   -7.8406125    4.9020320    0.0000000  0.00   -0.0002385   -0.0006484   -0.0000000
 C   -5.0004080    4.8062685    0.0000000  0.00    0.0045115    0.0033027   -0.0000000
 C   -7.2946384    1.2275856    0.0000000  0.00    0.0019857   -0.0005794   -0.0000000
 C   -5.8548130    1.2197695    0.0000000  0.00   -0.0020334    0.0005640   -0.0000000
 C   -7.9346912    2.4681512    0.0000000  0.00   -0.0001350   -0.0019978   -0.0000000
 C   -5.0853039    2.3945320    0.0000000  0.00    0.0024885   -0.0002087   -0.0000000
 C   -7.9782482    0.0000000    0.0000000  0.00    0.0010883   -0.0000000   -0.0000000
 C   -5.1752865    0.0000000    0.0000000  0.00    0.0080021   -0.0000000   -0.0000000
 C   -3.5626379    4.7392247    0.0000000  0.00   -0.0018970   -0.0034051   -0.0000000
 C   -2.8349732    5.9449581    0.0000000  0.00    0.0039652    0.0018480   -0.0000000
 C   -3.5138428    7.1973673    0.0000000  0.00   -0.0015589   -0.0029938   -0.0000000
 C   -3.6464875    2.3460316    0.0000000  0.00   -0.0044549   -0.0002147   -0.0000000
 C   -2.8660495    3.4992613    0.0000000  0.00    0.0019370    0.0006997   -0.0000000
 C   -3.7848453    0.0000000    0.0000000  0.00   -0.0023612   -0.0000000   -0.0000000
 C   -2.9856600    1.1222238    0.0000000  0.00    0.0044831   -0.0037474   -0.0000000
 C   -1.4154662    5.8542405    0.0000000  0.00   -0.0017964   -0.0009043   -0.0000000
 C   -0.7128687    7.0769828    0.0000000  0.00    0.0012098    0.0012577   -0.0000000
 C   -2.7591864    8.3670562    0.0000000  0.00    0.0004402    0.0013298   -0.0000000
 C   -1.4016060    8.3007001    0.0000000  0.00    0.0002798    0.0011088   -0.0000000
 C   -1.4211998    3.3358369    0.0000000  0.00   -0.0016783   -0.0025257   -0.0000000
 C   -0.7118648    4.5756467    0.0000000  0.00    0.0030078    0.0020955   -0.0000000
 C   -1.5839880    0.7942817    0.0000000  0.00    0.0025204   -0.0027416   -0.0000000
 C   -0.7340326    1.9973451    0.0000000  0.00    0.0006394   -0.0031247   -0.0000000
 H   -8.8673516    7.3619490    0.0000000  0.00    0.0010126   -0.0005550   -0.0000000
 H   -7.5614026    9.4740623    0.0000000  0.00   -0.0008963   -0.0006423   -0.0000000
 H   -5.1310165    9.4221112    0.0000000  0.00   -0.0001252   -0.0002849   -0.0000000
 H   -8.9259594    4.9415034    0.0000000  0.00   -0.0002089   -0.0012486   -0.0000000
 H   -9.0183898    2.5177781    0.0000000  0.00    0.0006550   -0.0004203   -0.0000000
 H   -9.0626937    0.0000000    0.0000000  0.00    0.0006744   -0.0000000   -0.0000000
 H   -3.2248253    9.3491799    0.0000000  0.00   -0.0017709   -0.0016627   -0.0000000
 H   -0.8691336    9.2456873    0.0000000  0.00    0.0008484   -0.0007517   -0.0000000
 C    7.1174798    6.0957918    0.0000000  0.00   -0.0024802    0.0006921   -0.0000000
 C    5.6833804    6.0543209    0.0000000  0.00    0.0016137    0.0010224   -0.0000000
 C    7.7804324    7.3448922    0.0000000  0.00    0.0003860   -0.0036365   -0.0000000
 C    4.9599690    7.2633148    0.0000000  0.00   -0.0009335    0.0006117   -0.0000000
 C    7.0560776    8.5115510    0.0000000  0.00    0.0006425    0.0018134   -0.0000000
 C    5.6623184    8.4744714    0.0000000  0.00   -0.0003282    0.0020888   -0.0000000
 C    7.1994944    3.6626308    0.0000000  0.00   -0.0020906   -0.0004873   -0.0000000
 C    5.7557512    3.6284262    0.0000000  0.00    0.0017240   -0.0015180   -0.0000000
 C    7.8406125    4.9020320    0.0000000  0.00    0.0002385   -0.0006484   -0.0000000
 C    5.0004080    4.8062685    0.0000000  0.00   -0.0045115    0.0033027   -0.0000000
 C    7.2946384    1.2275856    0.0000000  0.00   -0.0019857   -0.0005794   -0.0000000
 C    5.8548130    1.2197695    0.0000000  0.00    0.0020334    0.0005640   -0.0000000
 C    7.9346912    2.4681512    0.0000000  0.00    0.0001350   -0.0019978   -0.0000000
 C    5.0853039    2.3945320    0.0000000  0.00   -0.0024885   -0.0002087   -0.0000000
 C    3.5626379    4.7392247    0.0000000  0.00    0.0018970   -0.0034051   -0.0000000
 C    2.8349732    5.9449581    0.0000000  0.00   -0.0039652    0.0018480   -0.0000000
 C    3.5138428    7.1973673    0.0000000  0.00    0.0015589   -0.0029938   -0.0000000
 C    3.6464875    2.3460316    0.0000000  0.00    0.0044549   -0.0002147   -0.0000000
 C    2.8660495    3.4992613    0.0000000  0.00   -0.0019370    0.0006997   -0.0000000
 C    2.9856600    1.1222238    0.0000000  0.00   -0.0044831   -0.0037474   -0.0000000
 C    1.4154662    5.8542405    0.0000000  0.00    0.0017964   -0.0009043   -0.0000000
 C    0.7128687    7.0769828    0.0000000  0.00   -0.0012098    0.0012577   -0.0000000
 C    2.7591864    8.3670562    0.0000000  0.00   -0.0004402    0.0013298   -0.0000000
 C    1.4016060    8.3007001    0.0000000  0.00   -0.0002798    0.0011088   -0.0000000
 C    1.4211998    3.3358369    0.0000000  0.00    0.0016783   -0.0025257   -0.0000000
 C    0.7118648    4.5756467    0.0000000  0.00   -0.0030078    0.0020955   -0.0000000
 C    1.5839880    0.7942817    0.0000000  0.00   -0.0025204   -0.0027416   -0.0000000
 C    0.7340326    1.9973451    0.0000000  0.00   -0.0006394   -0.0031247   -0.0000000
 H    8.8673516    7.3619490    0.0000000  0.00   -0.0010126   -0.0005550   -0.0000000
 H    7.5614026    9.4740623    0.0000000  0.00    0.0008963   -0.0006423   -0.0000000
 H    5.1310165    9.4221112    0.0000000  0.00    0.0001252   -0.0002849   -0.0000000
 H    8.9259594    4.9415034    0.0000000  0.00    0.0002089   -0.0012486   -0.0000000
 H    9.0183898    2.5177781    0.0000000  0.00   -0.0006550   -0.0004203   -0.0000000
 H    3.2248253    9.3491799    0.0000000  0.00    0.0017709   -0.0016627   -0.0000000
 H    0.8691336    9.2456873    0.0000000  0.00   -0.0008484   -0.0007517   -0.0000000
 C   -7.1174798   -6.0957918    0.0000000  0.00    0.0024802   -0.0006921   -0.0000000
 C   -5.6833804   -6.0543209    0.0000000  0.00   -0.0016137   -0.0010224   -0.0000000
 C   -7.7804324   -7.3448922    0.0000000  0.00   -0.0003860    0.0036365   -0.0000000
 C   -4.9599690   -7.2633148    0.0000000  0.00    0.0009335   -0.0006117   -0.0000000
 C   -7.0560776   -8.5115510    0.0000000  0.00   -0.0006425   -0.0018134   -0.0000000
 C   -5.6623184   -8.4744714    0.0000000  0.00    0.0003282   -0.0020888   -0.0000000
 C   -7.1994944   -3.6626308    0.0000000  0.00    0.0020906    0.0004873   -0.0000000
 C   -5.7557512   -3.6284262    0.0000000  0.00   -0.0017240    0.0015180   -0.0000000
 C   -7.8406125   -4.9020320    0.0000000  0.00   -0.0002385    0.0006484   -0.0000000
 C   -5.0004080   -4.8062685    0.0000000  0.00    0.0045115   -0.0033027   -0.0000000
 C   -7.2946384   -1.2275856    0.0000000  0.00    0.0019857    0.0005794   -0.0000000
 C   -5.8548130   -1.2197695    0.0000000  0.00   -0.0020334   -0.0005640   -0.0000000
 C   -7.9346912   -2.4681512    0.0000000  0.00   -0.0001350    0.0019978   -0.0000000
 C   -5.0853039   -2.3945320    0.0000000  0.00    0.0024885    0.0002087   -0.0000000
 C   -3.5626379   -4.7392247    0.0000000  0.00   -0.0018970    0.0034051   -0.0000000
 C   -2.8349732   -5.9449581    0.0000000  0.00    0.0039652   -0.0018480   -0.0000000
 C   -3.5138428   -7.1973673    0.0000000  0.00   -0.0015589    0.0029938   -0.0000000
 C   -3.6464875   -2.3460316    0.0000000  0.00   -0.0044549    0.0002147   -0.0000000
 C   -2.8660495   -3.4992613    0.0000000  0.00    0.0019370   -0.0006997   -0.0000000
 C   -2.9856600   -1.1222238    0.0000000  0.00    0.0044831    0.0037474   -0.0000000
 C   -1.4154662   -5.8542405    0.0000000  0.00   -0.0017964    0.0009043   -0.0000000
 C   -0.7128687   -7.0769828    0.0000000  0.00    0.0012098   -0.0012577   -0.0000000
 C   -2.7591864   -8.3670562    0.0000000  0.00    0.0004402   -0.0013298   -0.0000000
 C   -1.4016060   -8.3007001    0.0000000  0.00    0.0002798   -0.0011088   -0.0000000
 C   -1.4211998   -3.3358369    0.0000000  0.00   -0.0016783    0.0025257   -0.0000000
 C   -0.7118648   -4.5756467    0.0000000  0.00    0.0030078   -0.0020955   -0.0000000
 C   -1.5839880   -0.7942817    0.0000000  0.00    0.0025204    0.0027416   -0.0000000
 C   -0.7340326   -1.9973451    0.0000000  0.00    0.0006394    0.0031247   -0.0000000
 H   -8.8673516   -7.3619490    0.0000000  0.00    0.0010126    0.0005550   -0.0000000
 H   -7.5614026   -9.4740623    0.0000000  0.00   -0.0008963    0.0006423   -0.0000000
 H   -5.1310165   -9.4221112    0.0000000  0.00   -0.0001252    0.0002849   -0.0000000
 H   -8.9259594   -4.9415034    0.0000000  0.00   -0.0002089    0.0012486   -0.0000000
 H   -9.0183898   -2.5177781    0.0000000  0.00    0.0006550    0.0004203   -0.0000000
 H   -3.2248253   -9.3491799    0.0000000  0.00   -0.0017709    0.0016627   -0.0000000
 H   -0.8691336   -9.2456873    0.0000000  0.00    0.0008484    0.0007517   -0.0000000
