148
 Energy =   -4513.2352627320
 C    7.1238481   -6.1008207    0.0000000  0.00    0.0004020   -0.0009369   -0.0000000
 C    5.6890671   -6.0623457    0.0000000  0.00   -0.0000387    0.0006161   -0.0000000
 C    7.7850662   -7.3505943    0.0000000  0.00   -0.0005600    0.0010540   -0.0000000
 C    4.9649453   -7.2718132    0.0000000  0.00   -0.0008874    0.0001742   -0.0000000
 C    7.0598444   -8.5180796    0.0000000  0.00    0.0005787   -0.0009413   -0.0000000
 C    5.6667575   -8.4845118    0.0000000  0.00   -0.0004842    0.0003533   -0.0000000
 C    7.2022120   -3.6660279    0.0000000  0.00    0.0015607   -0.0002592   -0.0000000
 C    5.7583672   -3.6338220    0.0000000  0.00   -0.0001628    0.0000946   -0.0000000
 C    7.8452381   -4.9052880    0.0000000  0.00   -0.0002975    0.0019797   -0.0000000
 C    5.0046870   -4.8143994    0.0000000  0.00   -0.0004462   -0.0001292   -0.0000000
 C    7.2849390   -1.2296612    0.0000000  0.00   -0.0011464    0.0015023   -0.0000000
 C    5.8463058   -1.2221373    0.0000000  0.00    0.0009406   -0.0019583   -0.0000000
 C    7.9307755   -2.4672859    0.0000000  0.00   -0.0005100   -0.0000058   -0.0000000
 C    5.0849569   -2.3999043    0.0000000  0.00   -0.0000188    0.0006407   -0.0000000
 C    7.9650889    0.0000000    0.0000000  0.00   -0.0007839   -0.0000000   -0.0000000
 C    5.1671696    0.0000000    0.0000000  0.00   -0.0016685   -0.0000000   -0.0000000
 C    3.5682061   -4.7504787    0.0000000  0.00   -0.0016081    0.0006240   -0.0000000
 C    2.8394333   -5.9496581    0.0000000  0.00   -0.0015442    0.0023013   -0.0000000
 C    3.5190935   -7.2057919    0.0000000  0.00   -0.0007498   -0.0012911   -0.0000000
 C    3.6479259   -2.3546972    0.0000000  0.00   -0.0018888   -0.0023242   -0.0000000
 C    2.8693739   -3.5071709    0.0000000  0.00   -0.0005757    0.0006422   -0.0000000
 C    3.7758397    0.0000000    0.0000000  0.00    0.0000980   -0.0000000   -0.0000000
 C    2.9845610   -1.1314848    0.0000000  0.00   -0.0024653    0.0030522   -0.0000000
 C    1.4175828   -5.8596045    0.0000000  0.00   -0.0006527   -0.0010070   -0.0000000
 C    0.7135964   -7.0846802    0.0000000  0.00   -0.0010681    0.0012660   -0.0000000
 C    2.7617833   -8.3706084    0.0000000  0.00    0.0016977    0.0010199   -0.0000000
 C    1.4015197   -8.3050066    0.0000000  0.00   -0.0010927   -0.0003189   -0.0000000
 C    1.4294422   -3.3519241    0.0000000  0.00   -0.0026010   -0.0014142   -0.0000000
 C    0.7162615   -4.5850466    0.0000000  0.00    0.0012783    0.0015772   -0.0000000
 C    1.5843250   -0.8328043    0.0000000  0.00   -0.0012373   -0.0016518   -0.0000000
 C    0.7465623   -2.0000930    0.0000000  0.00   -0.0005950    0.0006591   -0.0000000
 H    8.8709162   -7.3691031    0.0000000  0.00    0.0008677    0.0005926   -0.0000000
 H    7.5669902   -9.4787748    0.0000000  0.00    0.0003917   -0.0000403   -0.0000000
 H    5.1343653   -9.4305068    0.0000000  0.00    0.0015257   -0.0015841   -0.0000000
 H    8.9300931   -4.9416614    0.0000000  0.00    0.0004925   -0.0004698   -0.0000000
 H    9.0146697   -2.5092034    0.0000000  0.00   -0.0009946   -0.0027177   -0.0000000
 H    9.0497954    0.0000000    0.0000000  0.00   -0.0005688   -0.0000000   -0.0000000
 H    3.2240993   -9.3551840    0.0000000  0.00    0.0005092    0.0000589   -0.0000000
 H    0.8704924   -9.2536523    0.0000000  0.00    0.0028554   -0.0003621   -0.0000000
 C   -7.1238481    6.1008207    0.0000000  0.00   -0.0004020    0.0009369   -0.0000000
 C   -5.6890671    6.0623457    0.0000000  0.00    0.0000387   -0.0006161   -0.0000000
 C   -7.7850662    7.3505943    0.0000000  0.00    0.0005600   -0.0010540   -0.0000000
 C   -4.9649453    7.2718132    0.0000000  0.00    0.0008874   -0.0001742   -0.0000000
 C   -7.0598444    8.5180796    0.0000000  0.00   -0.0005787    0.0009413   -0.0000000
 C   -5.6667575    8.4845118    0.0000000  0.00    0.0004842   -0.0003533   -0.0000000
 C   -7.2022120    3.6660279    0.0000000  0.00   -0.0015607    0.0002592   -0.0000000
 C   -5.7583672    3.6338220    0.0000000  0.00    0.0001628   -0.0000946   -0.0000000
 C   -7.8452381    4.9052880    0.0000000  0.00    0.0002975   -0.0019797   -0.0000000
 C   -5.0046870    4.8143994    0.0000000  0.00    0.0004462    0.0001292   -0.0000000
 C   -7.2849390    1.2296612    0.0000000  0.00    0.0011464   -0.0015023   -0.0000000
 C   -5.8463058    1.2221373    0.0000000  0.00   -0.0009406    0.0019583   -0.0000000
 C   -7.9307755    2.4672859    0.0000000  0.00    0.0005100    0.0000058   -0.0000000
 C   -5.0849569    2.3999043    0.0000000  0.00    0.0000188   -0.0006407   -0.0000000
 C   -7.9650889    0.0000000    0.0000000  0.00    0.0007839   -0.0000000   -0.0000000
 C   -5.1671696    0.0000000    0.0000000  0.00    0.0016685   -0.0000000   -0.0000000
 C   -3.5682061    4.7504787    0.0000000  0.00    0.0016081   -0.0006240   -0.0000000
 C   -2.8394333    5.9496581    0.0000000  0.00    0.0015442   -0.0023013   -0.0000000
 C   -3.5190935    7.2057919    0.0000000  0.00    0.0007498    0.0012911   -0.0000000
 C   -3.6479259    2.3546972    0.0000000  0.00    0.0018888    0.0023242   -0.0000000
 C   -2.8693739    3.5071709    0.0000000  0.00    0.0005757   -0.0006422   -0.0000000
 C   -3.7758397    0.0000000    0.0000000  0.00   -0.0000980   -0.0000000   -0.0000000
 C   -2.9845610    1.1314848    0.0000000  0.00    0.0024653   -0.0030522   -0.0000000
 C   -1.4175828    5.8596045    0.0000000  0.00    0.0006527    0.0010070   -0.0000000
 C   -0.7135964    7.0846802    0.0000000  0.00    0.0010681   -0.0012660   -0.0000000
 C   -2.7617833    8.3706084    0.0000000  0.00   -0.0016977   -0.0010199   -0.0000000
 C   -1.4015197    8.3050066    0.0000000  0.00    0.0010927    0.0003189   -0.0000000
 C   -1.4294422    3.3519241    0.0000000  0.00    0.0026010    0.0014142   -0.0000000
 C   -0.7162615    4.5850466    0.0000000  0.00   -0.0012783   -0.0015772   -0.0000000
 C   -1.5843250    0.8328043    0.0000000  0.00    0.0012373    0.0016518   -0.0000000
 C   -0.7465623    2.0000930    0.0000000  0.00    0.0005950   -0.0006591   -0.0000000
 H   -8.8709162    7.3691031    0.0000000  0.00   -0.0008677   -0.0005926   -0.0000000
 H   -7.5669902    9.4787748    0.0000000  0.00   -0.0003917    0.0000403   -0.0000000
 H   -5.1343653    9.4305068    0.0000000  0.00   -0.0015257    0.0015841   -0.0000000
 H   -8.9300931    4.9416614    0.0000000  0.00   -0.0004925    0.0004698   -0.0000000
 H   -9.0146697    2.5092034    0.0000000  0.00    0.0009946    0.0027177   -0.0000000
 H   -9.0497954    0.0000000    0.0000000  0.00    0.0005688   -0.0000000   -0.0000000
 H   -3.2240993    9.3551840    0.0000000  0.00   -0.0005092   -0.0000589   -0.0000000
 H   -0.8704924    9.2536523    0.0000000  0.00   -0.0028554    0.0003621   -0.0000000
 C    7.1238481    6.1008207    0.0000000  0.00    0.0004020    0.0009369   -0.0000000
 C    5.6890671    6.0623457    0.0000000  0.00   -0.0000387   -0.0006161   -0.0000000
 C    7.7850662    7.3505943    0.0000000  0.00   -0.0005600   -0.0010540   -0.0000000
 C    4.9649453    7.2718132    0.0000000  0.00   -0.0008874   -0.0001742   -0.0000000
 C    7.0598444    8.5180796    0.0000000  0.00    0.0005787    0.0009413   -0.0000000
 C    5.6667575    8.4845118    0.0000000  0.00   -0.0004842   -0.0003533   -0.0000000
 C    7.2022120    3.6660279    0.0000000  0.00    0.0015607    0.0002592   -0.0000000
 C    5.7583672    3.6338220    0.0000000  0.00   -0.0001628   -0.0000946   -0.0000000
 C    7.8452381    4.9052880    0.0000000  0.00   -0.0002975   -0.0019797   -0.0000000
 C    5.0046870    4.8143994    0.0000000  0.00   -0.0004462    0.0001292   -0.0000000
 C    7.2849390    1.2296612    0.0000000  0.00   -0.0011464   -0.0015023   -0.0000000
 C    5.8463058    1.2221373    0.0000000  0.00    0.0009406    0.0019583   -0.0000000
 C    7.9307755    2.4672859    0.0000000  0.00   -0.0005100    0.0000058   -0.0000000
 C    5.0849569    2.3999043    0.0000000  0.00   -0.0000188   -0.0006407   -0.0000000
 C    3.5682061    4.7504787    0.0000000  0.00   -0.0016081   -0.0006240   -0.0000000
 C    2.8394333    5.9496581    0.0000000  0.00   -0.0015442   -0.0023013   -0.0000000
 C    3.5190935    7.2057919    0.0000000  0.00   -0.0007498    0.0012911   -0.0000000
 C    3.6479259    2.3546972    0.0000000  0.00   -0.0018888    0.0023242   -0.0000000
 C    2.8693739    3.5071709    0.0000000  0.00   -0.0005757   -0.0006422   -0.0000000
 C    2.9845610    1.1314848    0.0000000  0.00   -0.0024653   -0.0030522   -0.0000000
 C    1.4175828    5.8596045    0.0000000  0.00   -0.0006527    0.0010070   -0.0000000
 C    0.7135964    7.0846802    0.0000000  0.00   -0.0010681   -0.0012660   -0.0000000
 C    2.7617833    8.3706084    0.0000000  0.00    0.0016977   -0.0010199   -0.0000000
 C    1.4015197    8.3050066    0.0000000  0.00   -0.0010927    0.0003189   -0.0000000
 C    1.4294422    3.3519241    0.0000000  0.00   -0.0026010    0.0014142   -0.0000000
 C    0.7162615    4.5850466    0.0000000  0.00    0.0012783   -0.0015772   -0.0000000
 C    1.5843250    0.8328043    0.0000000  0.00   -0.0012373    0.0016518   -0.0000000
 C    0.7465623    2.0000930    0.0000000  0.00   -0.0005950   -0.0006591   -0.0000000
 H    8.8709162    7.3691031    0.0000000  0.00    0.0008677   -0.0005926   -0.0000000
 H    7.5669902    9.4787748    0.0000000  0.00    0.0003917    0.0000403   -0.0000000
 H    5.1343653    9.4305068    0.0000000  0.00    0.0015257    0.0015841   -0.0000000
 H    8.9300931    4.9416614    0.0000000  0.00    0.0004925    0.0004698   -0.0000000
 H    9.0146697    2.5092034    0.0000000  0.00   -0.0009946    0.0027177   -0.0000000
 H    3.2240993    9.3551840    0.0000000  0.00    0.0005092   -0.0000589   -0.0000000
 H    0.8704924    9.2536523    0.0000000  0.00    0.0028554    0.0003621   -0.0000000
 C   -7.1238481   -6.1008207    0.0000000  0.00   -0.0004020   -0.0009369   -0.0000000
 C   -5.6890671   -6.0623457    0.0000000  0.00    0.0000387    0.0006161   -0.0000000
 C   -7.7850662   -7.3505943    0.0000000  0.00    0.0005600    0.0010540   -0.0000000
 C   -4.9649453   -7.2718132    0.0000000  0.00    0.0008874    0.0001742   -0.0000000
 C   -7.0598444   -8.5180796    0.0000000  0.00   -0.0005787   -0.0009413   -0.0000000
 C   -5.6667575   -8.4845118    0.0000000  0.00    0.0004842    0.0003533   -0.0000000
 C   -7.2022120   -3.6660279    0.0000000  0.00   -0.0015607   -0.0002592   -0.0000000
 C   -5.7583672   -3.6338220    0.0000000  0.00    0.0001628    0.0000946   -0.0000000
 C   -7.8452381   -4.9052880    0.0000000  0.00    0.0002975    0.0019797   -0.0000000
 C   -5.0046870   -4.8143994    0.0000000  0.00    0.0004462   -0.0001292   -0.0000000
 C   -7.2849390   -1.2296612    0.0000000  0.00    0.0011464    0.0015023   -0.0000000
 C   -5.8463058   -1.2221373    0.0000000  0.00   -0.0009406   -0.0019583   -0.0000000
 C   -7.9307755   -2.4672859    0.0000000  0.00    0.0005100   -0.0000058   -0.0000000
 C   -5.0849569   -2.3999043    0.0000000  0.00    0.0000188    0.0006407   -0.0000000
 C   -3.5682061   -4.7504787    0.0000000  0.00    0.0016081    0.0006240   -0.0000000
 C   -2.8394333   -5.9496581    0.0000000  0.00    0.0015442    0.0023013   -0.0000000
 C   -3.5190935   -7.2057919    0.0000000  0.00    0.0007498   -0.0012911   -0.0000000
 C   -3.6479259   -2.3546972    0.0000000  0.00    0.0018888   -0.0023242   -0.0000000
 C   -2.8693739   -3.5071709    0.0000000  0.00    0.0005757    0.0006422   -0.0000000
 C   -2.9845610   -1.1314848    0.0000000  0.00    0.0024653    0.0030522   -0.0000000
 C   -1.4175828   -5.8596045    0.0000000  0.00    0.0006527   -0.0010070   -0.0000000
 C   -0.7135964   -7.0846802    0.0000000  0.00    0.0010681    0.0012660   -0.0000000
 C   -2.7617833   -8.3706084    0.0000000  0.00   -0.0016977    0.0010199   -0.0000000
 C   -1.4015197   -8.3050066    0.0000000  0.00    0.0010927   -0.0003189   -0.0000000
 C   -1.4294422   -3.3519241    0.0000000  0.00    0.0026010   -0.0014142   -0.0000000
 C   -0.7162615   -4.5850466    0.0000000  0.00   -0.0012783    0.0015772   -0.0000000
 C   -1.5843250   -0.8328043    0.0000000  0.00    0.0012373   -0.0016518   -0.0000000
 C   -0.7465623   -2.0000930    0.0000000  0.00    0.0005950    0.0006591   -0.0000000
 H   -8.8709162   -7.3691031    0.0000000  0.00   -0.0008677    0.0005926   -0.0000000
 H   -7.5669902   -9.4787748    0.0000000  0.00   -0.0003917   -0.0000403   -0.0000000
 H   -5.1343653   -9.4305068    0.0000000  0.00   -0.0015257   -0.0015841   -0.0000000
 H   -8.9300931   -4.9416614    0.0000000  0.00   -0.0004925   -0.0004698   -0.0000000
 H   -9.0146697   -2.5092034    0.0000000  0.00    0.0009946   -0.0027177   -0.0000000
 H   -3.2240993   -9.3551840    0.0000000  0.00   -0.0005092    0.0000589   -0.0000000
 H   -0.8704924   -9.2536523    0.0000000  0.00   -0.0028554   -0.0003621   -0.0000000
