148
 Energy =   -4513.2413532660
 C    7.1181147   -6.0952356    0.0000000  0.00   -0.0008072    0.0011240   -0.0000000
 C    5.6839362   -6.0541523    0.0000000  0.00   -0.0004216   -0.0017579   -0.0000000
 C    7.7813855   -7.3439792    0.0000000  0.00    0.0005588    0.0008475   -0.0000000
 C    4.9607022   -7.2633975    0.0000000  0.00   -0.0011698   -0.0006027   -0.0000000
 C    7.0573398   -8.5108393    0.0000000  0.00    0.0013306   -0.0022867   -0.0000000
 C    5.6635515   -8.4743501    0.0000000  0.00   -0.0016690   -0.0012145   -0.0000000
 C    7.1994023   -3.6623517    0.0000000  0.00   -0.0006700    0.0014470   -0.0000000
 C    5.7557499   -3.6283112    0.0000000  0.00   -0.0019914    0.0002482   -0.0000000
 C    7.8410067   -4.9012692    0.0000000  0.00   -0.0006642   -0.0021315   -0.0000000
 C    5.0004798   -4.8063947    0.0000000  0.00   -0.0005159    0.0006762   -0.0000000
 C    7.2942396   -1.2273904    0.0000000  0.00   -0.0002117    0.0012687   -0.0000000
 C    5.8545512   -1.2197737    0.0000000  0.00   -0.0015816    0.0003287   -0.0000000
 C    7.9343636   -2.4677633    0.0000000  0.00   -0.0007010    0.0009399   -0.0000000
 C    5.0851102   -2.3946206    0.0000000  0.00    0.0014046    0.0020274   -0.0000000
 C    7.9781218    0.0000000    0.0000000  0.00   -0.0022289   -0.0000000   -0.0000000
 C    5.1748386    0.0000000    0.0000000  0.00   -0.0035289   -0.0000000   -0.0000000
 C    3.5628133   -4.7393046    0.0000000  0.00   -0.0014505   -0.0018887   -0.0000000
 C    2.8351898   -5.9451287    0.0000000  0.00   -0.0005449    0.0013023   -0.0000000
 C    3.5143699   -7.1973661    0.0000000  0.00    0.0011093    0.0004765   -0.0000000
 C    3.6463689   -2.3461764    0.0000000  0.00   -0.0012142    0.0006037   -0.0000000
 C    2.8660068   -3.4994687    0.0000000  0.00    0.0010210    0.0027705   -0.0000000
 C    3.7845567    0.0000000    0.0000000  0.00   -0.0005021   -0.0000000   -0.0000000
 C    2.9853486   -1.1222394    0.0000000  0.00   -0.0024935    0.0014829   -0.0000000
 C    1.4156092   -5.8545018    0.0000000  0.00   -0.0010410   -0.0010979   -0.0000000
 C    0.7128904   -7.0773074    0.0000000  0.00    0.0015019   -0.0014162   -0.0000000
 C    2.7595796   -8.3670422    0.0000000  0.00    0.0019102   -0.0015723   -0.0000000
 C    1.4019459   -8.3009474    0.0000000  0.00   -0.0020281   -0.0003263   -0.0000000
 C    1.4211968   -3.3360781    0.0000000  0.00   -0.0005324    0.0009230   -0.0000000
 C    0.7118087   -4.5760690    0.0000000  0.00    0.0016029    0.0004717   -0.0000000
 C    1.5837749   -0.7945939    0.0000000  0.00   -0.0019176    0.0016120   -0.0000000
 C    0.7340910   -1.9975930    0.0000000  0.00    0.0007605    0.0030593   -0.0000000
 H    8.8682535   -7.3607830    0.0000000  0.00   -0.0007395    0.0007505   -0.0000000
 H    7.5632646   -9.4731010    0.0000000  0.00   -0.0004001    0.0014975   -0.0000000
 H    5.1326350   -9.4221532    0.0000000  0.00   -0.0002365    0.0004479   -0.0000000
 H    8.9263797   -4.9400585    0.0000000  0.00   -0.0001258    0.0003075   -0.0000000
 H    9.0181101   -2.5171869    0.0000000  0.00   -0.0009100    0.0001839   -0.0000000
 H    9.0625143    0.0000000    0.0000000  0.00   -0.0000168   -0.0000000   -0.0000000
 H    3.2255312   -9.3491353    0.0000000  0.00    0.0006022    0.0025705   -0.0000000
 H    0.8695644   -9.2461204    0.0000000  0.00   -0.0006900    0.0010219   -0.0000000
 C   -7.1181147    6.0952356    0.0000000  0.00    0.0008072   -0.0011240   -0.0000000
 C   -5.6839362    6.0541523    0.0000000  0.00    0.0004216    0.0017579   -0.0000000
 C   -7.7813855    7.3439792    0.0000000  0.00   -0.0005588   -0.0008475   -0.0000000
 C   -4.9607022    7.2633975    0.0000000  0.00    0.0011698    0.0006027   -0.0000000
 C   -7.0573398    8.5108393    0.0000000  0.00   -0.0013306    0.0022867   -0.0000000
 C   -5.6635515    8.4743501    0.0000000  0.00    0.0016690    0.0012145   -0.0000000
 C   -7.1994023    3.6623517    0.0000000  0.00    0.0006700   -0.0014470   -0.0000000
 C   -5.7557499    3.6283112    0.0000000  0.00    0.0019914   -0.0002482   -0.0000000
 C   -7.8410067    4.9012692    0.0000000  0.00    0.0006642    0.0021315   -0.0000000
 C   -5.0004798    4.8063947    0.0000000  0.00    0.0005159   -0.0006762   -0.0000000
 C   -7.2942396    1.2273904    0.0000000  0.00    0.0002117   -0.0012687   -0.0000000
 C   -5.8545512    1.2197737    0.0000000  0.00    0.0015816   -0.0003287   -0.0000000
 C   -7.9343636    2.4677633    0.0000000  0.00    0.0007010   -0.0009399   -0.0000000
 C   -5.0851102    2.3946206    0.0000000  0.00   -0.0014046   -0.0020274   -0.0000000
 C   -7.9781218    0.0000000    0.0000000  0.00    0.0022289   -0.0000000   -0.0000000
 C   -5.1748386    0.0000000    0.0000000  0.00    0.0035289   -0.0000000   -0.0000000
 C   -3.5628133    4.7393046    0.0000000  0.00    0.0014505    0.0018887   -0.0000000
 C   -2.8351898    5.9451287    0.0000000  0.00    0.0005449   -0.0013023   -0.0000000
 C   -3.5143699    7.1973661    0.0000000  0.00   -0.0011093   -0.0004765   -0.0000000
 C   -3.6463689    2.3461764    0.0000000  0.00    0.0012142   -0.0006037   -0.0000000
 C   -2.8660068    3.4994687    0.0000000  0.00   -0.0010210   -0.0027705   -0.0000000
 C   -3.7845567    0.0000000    0.0000000  0.00    0.0005021   -0.0000000   -0.0000000
 C   -2.9853486    1.1222394    0.0000000  0.00    0.0024935   -0.0014829   -0.0000000
 C   -1.4156092    5.8545018    0.0000000  0.00    0.0010410    0.0010979   -0.0000000
 C   -0.7128904    7.0773074    0.0000000  0.00   -0.0015019    0.0014162   -0.0000000
 C   -2.7595796    8.3670422    0.0000000  0.00   -0.0019102    0.0015723   -0.0000000
 C   -1.4019459    8.3009474    0.0000000  0.00    0.0020281    0.0003263   -0.0000000
 C   -1.4211968    3.3360781    0.0000000  0.00    0.0005324   -0.0009230   -0.0000000
 C   -0.7118087    4.5760690    0.0000000  0.00   -0.0016029   -0.0004717   -0.0000000
 C   -1.5837749    0.7945939    0.0000000  0.00    0.0019176   -0.0016120   -0.0000000
 C   -0.7340910    1.9975930    0.0000000  0.00   -0.0007605   -0.0030593   -0.0000000
 H   -8.8682535    7.3607830    0.0000000  0.00    0.0007395   -0.0007505   -0.0000000
 H   -7.5632646    9.4731010    0.0000000  0.00    0.0004001   -0.0014975   -0.0000000
 H   -5.1326350    9.4221532    0.0000000  0.00    0.0002365   -0.0004479   -0.0000000
 H   -8.9263797    4.9400585    0.0000000  0.00    0.0001258   -0.0003075   -0.0000000
 H   -9.0181101    2.5171869    0.0000000  0.00    0.0009100   -0.0001839   -0.0000000
 H   -9.0625143    0.0000000    0.0000000  0.00    0.0000168   -0.0000000   -0.0000000
 H   -3.2255312    9.3491353    0.0000000  0.00   -0.0006022   -0.0025705   -0.0000000
 H   -0.8695644    9.2461204    0.0000000  0.00    0.0006900   -0.0010219   -0.0000000
 C    7.1181147    6.0952356    0.0000000  0.00   -0.0008072   -0.0011240   -0.0000000
 C    5.6839362    6.0541523    0.0000000  0.00   -0.0004216    0.0017579   -0.0000000
 C    7.7813855    7.3439792    0.0000000  0.00    0.0005588   -0.0008475   -0.0000000
 C    4.9607022    7.2633975    0.0000000  0.00   -0.0011698    0.0006027   -0.0000000
 C    7.0573398    8.5108393    0.0000000  0.00    0.0013306    0.0022867   -0.0000000
 C    5.6635515    8.4743501    0.0000000  0.00   -0.0016690    0.0012145   -0.0000000
 C    7.1994023    3.6623517    0.0000000  0.00   -0.0006700   -0.0014470   -0.0000000
 C    5.7557499    3.6283112    0.0000000  0.00   -0.0019914   -0.0002482   -0.0000000
 C    7.8410067    4.9012692    0.0000000  0.00   -0.0006642    0.0021315   -0.0000000
 C    5.0004798    4.8063947    0.0000000  0.00   -0.0005159   -0.0006762   -0.0000000
 C    7.2942396    1.2273904    0.0000000  0.00   -0.0002117   -0.0012687   -0.0000000
 C    5.8545512    1.2197737    0.0000000  0.00   -0.0015816   -0.0003287   -0.0000000
 C    7.9343636    2.4677633    0.0000000  0.00   -0.0007010   -0.0009399   -0.0000000
 C    5.0851102    2.3946206    0.0000000  0.00    0.0014046   -0.0020274   -0.0000000
 C    3.5628133    4.7393046    0.0000000  0.00   -0.0014505    0.0018887   -0.0000000
 C    2.8351898    5.9451287    0.0000000  0.00   -0.0005449   -0.0013023   -0.0000000
 C    3.5143699    7.1973661    0.0000000  0.00    0.0011093   -0.0004765   -0.0000000
 C    3.6463689    2.3461764    0.0000000  0.00   -0.0012142   -0.0006037   -0.0000000
 C    2.8660068    3.4994687    0.0000000  0.00    0.0010210   -0.0027705   -0.0000000
 C    2.9853486    1.1222394    0.0000000  0.00   -0.0024935   -0.0014829   -0.0000000
 C    1.4156092    5.8545018    0.0000000  0.00   -0.0010410    0.0010979   -0.0000000
 C    0.7128904    7.0773074    0.0000000  0.00    0.0015019    0.0014162   -0.0000000
 C    2.7595796    8.3670422    0.0000000  0.00    0.0019102    0.0015723   -0.0000000
 C    1.4019459    8.3009474    0.0000000  0.00   -0.0020281    0.0003263   -0.0000000
 C    1.4211968    3.3360781    0.0000000  0.00   -0.0005324   -0.0009230   -0.0000000
 C    0.7118087    4.5760690    0.0000000  0.00    0.0016029   -0.0004717   -0.0000000
 C    1.5837749    0.7945939    0.0000000  0.00   -0.0019176   -0.0016120   -0.0000000
 C    0.7340910    1.9975930    0.0000000  0.00    0.0007605   -0.0030593   -0.0000000
 H    8.8682535    7.3607830    0.0000000  0.00   -0.0007395   -0.0007505   -0.0000000
 H    7.5632646    9.4731010    0.0000000  0.00   -0.0004001   -0.0014975   -0.0000000
 H    5.1326350    9.4221532    0.0000000  0.00   -0.0002365   -0.0004479   -0.0000000
 H    8.9263797    4.9400585    0.0000000  0.00   -0.0001258   -0.0003075   -0.0000000
 H    9.0181101    2.5171869    0.0000000  0.00   -0.0009100   -0.0001839   -0.0000000
 H    3.2255312    9.3491353    0.0000000  0.00    0.0006022   -0.0025705   -0.0000000
 H    0.8695644    9.2461204    0.0000000  0.00   -0.0006900   -0.0010219   -0.0000000
 C   -7.1181147   -6.0952356    0.0000000  0.00    0.0008072    0.0011240   -0.0000000
 C   -5.6839362   -6.0541523    0.0000000  0.00    0.0004216   -0.0017579   -0.0000000
 C   -7.7813855   -7.3439792    0.0000000  0.00   -0.0005588    0.0008475   -0.0000000
 C   -4.9607022   -7.2633975    0.0000000  0.00    0.0011698   -0.0006027   -0.0000000
 C   -7.0573398   -8.5108393    0.0000000  0.00   -0.0013306   -0.0022867   -0.0000000
 C   -5.6635515   -8.4743501    0.0000000  0.00    0.0016690   -0.0012145   -0.0000000
 C   -7.1994023   -3.6623517    0.0000000  0.00    0.0006700    0.0014470   -0.0000000
 C   -5.7557499   -3.6283112    0.0000000  0.00    0.0019914    0.0002482   -0.0000000
 C   -7.8410067   -4.9012692    0.0000000  0.00    0.0006642   -0.0021315   -0.0000000
 C   -5.0004798   -4.8063947    0.0000000  0.00    0.0005159    0.0006762   -0.0000000
 C   -7.2942396   -1.2273904    0.0000000  0.00    0.0002117    0.0012687   -0.0000000
 C   -5.8545512   -1.2197737    0.0000000  0.00    0.0015816    0.0003287   -0.0000000
 C   -7.9343636   -2.4677633    0.0000000  0.00    0.0007010    0.0009399   -0.0000000
 C   -5.0851102   -2.3946206    0.0000000  0.00   -0.0014046    0.0020274   -0.0000000
 C   -3.5628133   -4.7393046    0.0000000  0.00    0.0014505   -0.0018887   -0.0000000
 C   -2.8351898   -5.9451287    0.0000000  0.00    0.0005449    0.0013023   -0.0000000
 C   -3.5143699   -7.1973661    0.0000000  0.00   -0.0011093    0.0004765   -0.0000000
 C   -3.6463689   -2.3461764    0.0000000  0.00    0.0012142    0.0006037   -0.0000000
 C   -2.8660068   -3.4994687    0.0000000  0.00   -0.0010210    0.0027705   -0.0000000
 C   -2.9853486   -1.1222394    0.0000000  0.00    0.0024935    0.0014829   -0.0000000
 C   -1.4156092   -5.8545018    0.0000000  0.00    0.0010410   -0.0010979   -0.0000000
 C   -0.7128904   -7.0773074    0.0000000  0.00   -0.0015019   -0.0014162   -0.0000000
 C   -2.7595796   -8.3670422    0.0000000  0.00   -0.0019102   -0.0015723   -0.0000000
 C   -1.4019459   -8.3009474    0.0000000  0.00    0.0020281   -0.0003263   -0.0000000
 C   -1.4211968   -3.3360781    0.0000000  0.00    0.0005324    0.0009230   -0.0000000
 C   -0.7118087   -4.5760690    0.0000000  0.00   -0.0016029    0.0004717   -0.0000000
 C   -1.5837749   -0.7945939    0.0000000  0.00    0.0019176    0.0016120   -0.0000000
 C   -0.7340910   -1.9975930    0.0000000  0.00   -0.0007605    0.0030593   -0.0000000
 H   -8.8682535   -7.3607830    0.0000000  0.00    0.0007395    0.0007505   -0.0000000
 H   -7.5632646   -9.4731010    0.0000000  0.00    0.0004001    0.0014975   -0.0000000
 H   -5.1326350   -9.4221532    0.0000000  0.00    0.0002365    0.0004479   -0.0000000
 H   -8.9263797   -4.9400585    0.0000000  0.00    0.0001258    0.0003075   -0.0000000
 H   -9.0181101   -2.5171869    0.0000000  0.00    0.0009100    0.0001839   -0.0000000
 H   -3.2255312   -9.3491353    0.0000000  0.00   -0.0006022    0.0025705   -0.0000000
 H   -0.8695644   -9.2461204    0.0000000  0.00    0.0006900    0.0010219   -0.0000000
