148
 Energy =   -4513.2390660200
 C    7.1047848   -6.1056027    0.0000000  0.00   -0.0009864    0.0004393   -0.0000000
 C    5.6735276   -6.0654237    0.0000000  0.00    0.0014690   -0.0021286   -0.0000000
 C    7.7657801   -7.3496591    0.0000000  0.00    0.0027252    0.0009115   -0.0000000
 C    4.9503387   -7.2736862    0.0000000  0.00   -0.0004755    0.0013250   -0.0000000
 C    7.0423999   -8.5236047    0.0000000  0.00   -0.0017975   -0.0011648   -0.0000000
 C    5.6542168   -8.4909378    0.0000000  0.00    0.0018857   -0.0006945   -0.0000000
 C    7.1883684   -3.6687597    0.0000000  0.00   -0.0009627    0.0007455   -0.0000000
 C    5.7449416   -3.6324912    0.0000000  0.00    0.0013095   -0.0007191   -0.0000000
 C    7.8290541   -4.9049433    0.0000000  0.00    0.0008516   -0.0000167   -0.0000000
 C    4.9879804   -4.8159170    0.0000000  0.00   -0.0008456    0.0027773   -0.0000000
 C    7.2780026   -1.2295974    0.0000000  0.00    0.0010883    0.0001965   -0.0000000
 C    5.8428408   -1.2209355    0.0000000  0.00   -0.0002707   -0.0012315   -0.0000000
 C    7.9229389   -2.4689771    0.0000000  0.00   -0.0000976    0.0008621   -0.0000000
 C    5.0742419   -2.4004778    0.0000000  0.00    0.0012321   -0.0007668   -0.0000000
 C    7.9610507    0.0000000    0.0000000  0.00    0.0001155   -0.0000000   -0.0000000
 C    5.1652160    0.0000000    0.0000000  0.00    0.0026535   -0.0000000   -0.0000000
 C    3.5589081   -4.7517878    0.0000000  0.00   -0.0018341   -0.0039485   -0.0000000
 C    2.8312094   -5.9574079    0.0000000  0.00    0.0014302    0.0025291   -0.0000000
 C    3.5097427   -7.2086945    0.0000000  0.00   -0.0005737    0.0000873   -0.0000000
 C    3.6385889   -2.3528549    0.0000000  0.00   -0.0037218    0.0006281   -0.0000000
 C    2.8587564   -3.5044183    0.0000000  0.00    0.0009118    0.0007236   -0.0000000
 C    3.7742118    0.0000000    0.0000000  0.00   -0.0003212   -0.0000000   -0.0000000
 C    2.9749925   -1.1266705    0.0000000  0.00    0.0044343   -0.0024815   -0.0000000
 C    1.4116681   -5.8688287    0.0000000  0.00   -0.0023909   -0.0012251   -0.0000000
 C    0.7091148   -7.0911178    0.0000000  0.00   -0.0018106    0.0026464   -0.0000000
 C    2.7528439   -8.3858272    0.0000000  0.00   -0.0016260   -0.0001711   -0.0000000
 C    1.4008140   -8.3229914    0.0000000  0.00    0.0019706    0.0002843   -0.0000000
 C    1.4209178   -3.3423823    0.0000000  0.00   -0.0042749   -0.0026504   -0.0000000
 C    0.7065520   -4.5927730    0.0000000  0.00    0.0043450    0.0008739   -0.0000000
 C    1.5831524   -0.8078689    0.0000000  0.00   -0.0015411    0.0003920   -0.0000000
 C    0.7336894   -2.0100692    0.0000000  0.00   -0.0000781   -0.0017431   -0.0000000
 H    8.8520116   -7.3665391    0.0000000  0.00    0.0006955   -0.0014235   -0.0000000
 H    7.5532925   -9.4824540    0.0000000  0.00   -0.0003372   -0.0012608   -0.0000000
 H    5.1217153   -9.4369842    0.0000000  0.00    0.0008925   -0.0011365   -0.0000000
 H    8.9139800   -4.9437010    0.0000000  0.00   -0.0005887    0.0002078   -0.0000000
 H    9.0066837   -2.5158638    0.0000000  0.00   -0.0018897    0.0009438   -0.0000000
 H    9.0456928    0.0000000    0.0000000  0.00    0.0002427   -0.0000000   -0.0000000
 H    3.2213546   -9.3669069    0.0000000  0.00   -0.0000803   -0.0011817   -0.0000000
 H    0.8676824   -9.2695049    0.0000000  0.00    0.0027491    0.0011721   -0.0000000
 C   -7.1047848    6.1056027    0.0000000  0.00    0.0009864   -0.0004393   -0.0000000
 C   -5.6735276    6.0654237    0.0000000  0.00   -0.0014690    0.0021286   -0.0000000
 C   -7.7657801    7.3496591    0.0000000  0.00   -0.0027252   -0.0009115   -0.0000000
 C   -4.9503387    7.2736862    0.0000000  0.00    0.0004755   -0.0013250   -0.0000000
 C   -7.0423999    8.5236047    0.0000000  0.00    0.0017975    0.0011648   -0.0000000
 C   -5.6542168    8.4909378    0.0000000  0.00   -0.0018857    0.0006945   -0.0000000
 C   -7.1883684    3.6687597    0.0000000  0.00    0.0009627   -0.0007455   -0.0000000
 C   -5.7449416    3.6324912    0.0000000  0.00   -0.0013095    0.0007191   -0.0000000
 C   -7.8290541    4.9049433    0.0000000  0.00   -0.0008516    0.0000167   -0.0000000
 C   -4.9879804    4.8159170    0.0000000  0.00    0.0008456   -0.0027773   -0.0000000
 C   -7.2780026    1.2295974    0.0000000  0.00   -0.0010883   -0.0001965   -0.0000000
 C   -5.8428408    1.2209355    0.0000000  0.00    0.0002707    0.0012315   -0.0000000
 C   -7.9229389    2.4689771    0.0000000  0.00    0.0000976   -0.0008621   -0.0000000
 C   -5.0742419    2.4004778    0.0000000  0.00   -0.0012321    0.0007668   -0.0000000
 C   -7.9610507    0.0000000    0.0000000  0.00   -0.0001155   -0.0000000   -0.0000000
 C   -5.1652160    0.0000000    0.0000000  0.00   -0.0026535   -0.0000000   -0.0000000
 C   -3.5589081    4.7517878    0.0000000  0.00    0.0018341    0.0039485   -0.0000000
 C   -2.8312094    5.9574079    0.0000000  0.00   -0.0014302   -0.0025291   -0.0000000
 C   -3.5097427    7.2086945    0.0000000  0.00    0.0005737   -0.0000873   -0.0000000
 C   -3.6385889    2.3528549    0.0000000  0.00    0.0037218   -0.0006281   -0.0000000
 C   -2.8587564    3.5044183    0.0000000  0.00   -0.0009118   -0.0007236   -0.0000000
 C   -3.7742118    0.0000000    0.0000000  0.00    0.0003212   -0.0000000   -0.0000000
 C   -2.9749925    1.1266705    0.0000000  0.00   -0.0044343    0.0024815   -0.0000000
 C   -1.4116681    5.8688287    0.0000000  0.00    0.0023909    0.0012251   -0.0000000
 C   -0.7091148    7.0911178    0.0000000  0.00    0.0018106   -0.0026464   -0.0000000
 C   -2.7528439    8.3858272    0.0000000  0.00    0.0016260    0.0001711   -0.0000000
 C   -1.4008140    8.3229914    0.0000000  0.00   -0.0019706   -0.0002843   -0.0000000
 C   -1.4209178    3.3423823    0.0000000  0.00    0.0042749    0.0026504   -0.0000000
 C   -0.7065520    4.5927730    0.0000000  0.00   -0.0043450   -0.0008739   -0.0000000
 C   -1.5831524    0.8078689    0.0000000  0.00    0.0015411   -0.0003920   -0.0000000
 C   -0.7336894    2.0100692    0.0000000  0.00    0.0000781    0.0017431   -0.0000000
 H   -8.8520116    7.3665391    0.0000000  0.00   -0.0006955    0.0014235   -0.0000000
 H   -7.5532925    9.4824540    0.0000000  0.00    0.0003372    0.0012608   -0.0000000
 H   -5.1217153    9.4369842    0.0000000  0.00   -0.0008925    0.0011365   -0.0000000
 H   -8.9139800    4.9437010    0.0000000  0.00    0.0005887   -0.0002078   -0.0000000
 H   -9.0066837    2.5158638    0.0000000  0.00    0.0018897   -0.0009438   -0.0000000
 H   -9.0456928    0.0000000    0.0000000  0.00   -0.0002427   -0.0000000   -0.0000000
 H   -3.2213546    9.3669069    0.0000000  0.00    0.0000803    0.0011817   -0.0000000
 H   -0.8676824    9.2695049    0.0000000  0.00   -0.0027491   -0.0011721   -0.0000000
 C    7.1047848    6.1056027    0.0000000  0.00   -0.0009864   -0.0004393   -0.0000000
 C    5.6735276    6.0654237    0.0000000  0.00    0.0014690    0.0021286   -0.0000000
 C    7.7657801    7.3496591    0.0000000  0.00    0.0027252   -0.0009115   -0.0000000
 C    4.9503387    7.2736862    0.0000000  0.00   -0.0004755   -0.0013250   -0.0000000
 C    7.0423999    8.5236047    0.0000000  0.00   -0.0017975    0.0011648   -0.0000000
 C    5.6542168    8.4909378    0.0000000  0.00    0.0018857    0.0006945   -0.0000000
 C    7.1883684    3.6687597    0.0000000  0.00   -0.0009627   -0.0007455   -0.0000000
 C    5.7449416    3.6324912    0.0000000  0.00    0.0013095    0.0007191   -0.0000000
 C    7.8290541    4.9049433    0.0000000  0.00    0.0008516    0.0000167   -0.0000000
 C    4.9879804    4.8159170    0.0000000  0.00   -0.0008456   -0.0027773   -0.0000000
 C    7.2780026    1.2295974    0.0000000  0.00    0.0010883   -0.0001965   -0.0000000
 C    5.8428408    1.2209355    0.0000000  0.00   -0.0002707    0.0012315   -0.0000000
 C    7.9229389    2.4689771    0.0000000  0.00   -0.0000976   -0.0008621   -0.0000000
 C    5.0742419    2.4004778    0.0000000  0.00    0.0012321    0.0007668   -0.0000000
 C    3.5589081    4.7517878    0.0000000  0.00   -0.0018341    0.0039485   -0.0000000
 C    2.8312094    5.9574079    0.0000000  0.00    0.0014302   -0.0025291   -0.0000000
 C    3.5097427    7.2086945    0.0000000  0.00   -0.0005737   -0.0000873   -0.0000000
 C    3.6385889    2.3528549    0.0000000  0.00   -0.0037218   -0.0006281   -0.0000000
 C    2.8587564    3.5044183    0.0000000  0.00    0.0009118   -0.0007236   -0.0000000
 C    2.9749925    1.1266705    0.0000000  0.00    0.0044343    0.0024815   -0.0000000
 C    1.4116681    5.8688287    0.0000000  0.00   -0.0023909    0.0012251   -0.0000000
 C    0.7091148    7.0911178    0.0000000  0.00   -0.0018106   -0.0026464   -0.0000000
 C    2.7528439    8.3858272    0.0000000  0.00   -0.0016260    0.0001711   -0.0000000
 C    1.4008140    8.3229914    0.0000000  0.00    0.0019706   -0.0002843   -0.0000000
 C    1.4209178    3.3423823    0.0000000  0.00   -0.0042749    0.0026504   -0.0000000
 C    0.7065520    4.5927730    0.0000000  0.00    0.0043450   -0.0008739   -0.0000000
 C    1.5831524    0.8078689    0.0000000  0.00   -0.0015411   -0.0003920   -0.0000000
 C    0.7336894    2.0100692    0.0000000  0.00   -0.0000781    0.0017431   -0.0000000
 H    8.8520116    7.3665391    0.0000000  0.00    0.0006955    0.0014235   -0.0000000
 H    7.5532925    9.4824540    0.0000000  0.00   -0.0003372    0.0012608   -0.0000000
 H    5.1217153    9.4369842    0.0000000  0.00    0.0008925    0.0011365   -0.0000000
 H    8.9139800    4.9437010    0.0000000  0.00   -0.0005887   -0.0002078   -0.0000000
 H    9.0066837    2.5158638    0.0000000  0.00   -0.0018897   -0.0009438   -0.0000000
 H    3.2213546    9.3669069    0.0000000  0.00   -0.0000803    0.0011817   -0.0000000
 H    0.8676824    9.2695049    0.0000000  0.00    0.0027491   -0.0011721   -0.0000000
 C   -7.1047848   -6.1056027    0.0000000  0.00    0.0009864    0.0004393   -0.0000000
 C   -5.6735276   -6.0654237    0.0000000  0.00   -0.0014690   -0.0021286   -0.0000000
 C   -7.7657801   -7.3496591    0.0000000  0.00   -0.0027252    0.0009115   -0.0000000
 C   -4.9503387   -7.2736862    0.0000000  0.00    0.0004755    0.0013250   -0.0000000
 C   -7.0423999   -8.5236047    0.0000000  0.00    0.0017975   -0.0011648   -0.0000000
 C   -5.6542168   -8.4909378    0.0000000  0.00   -0.0018857   -0.0006945   -0.0000000
 C   -7.1883684   -3.6687597    0.0000000  0.00    0.0009627    0.0007455   -0.0000000
 C   -5.7449416   -3.6324912    0.0000000  0.00   -0.0013095   -0.0007191   -0.0000000
 C   -7.8290541   -4.9049433    0.0000000  0.00   -0.0008516   -0.0000167   -0.0000000
 C   -4.9879804   -4.8159170    0.0000000  0.00    0.0008456    0.0027773   -0.0000000
 C   -7.2780026   -1.2295974    0.0000000  0.00   -0.0010883    0.0001965   -0.0000000
 C   -5.8428408   -1.2209355    0.0000000  0.00    0.0002707   -0.0012315   -0.0000000
 C   -7.9229389   -2.4689771    0.0000000  0.00    0.0000976    0.0008621   -0.0000000
 C   -5.0742419   -2.4004778    0.0000000  0.00   -0.0012321   -0.0007668   -0.0000000
 C   -3.5589081   -4.7517878    0.0000000  0.00    0.0018341   -0.0039485   -0.0000000
 C   -2.8312094   -5.9574079    0.0000000  0.00   -0.0014302    0.0025291   -0.0000000
 C   -3.5097427   -7.2086945    0.0000000  0.00    0.0005737    0.0000873   -0.0000000
 C   -3.6385889   -2.3528549    0.0000000  0.00    0.0037218    0.0006281   -0.0000000
 C   -2.8587564   -3.5044183    0.0000000  0.00   -0.0009118    0.0007236   -0.0000000
 C   -2.9749925   -1.1266705    0.0000000  0.00   -0.0044343   -0.0024815   -0.0000000
 C   -1.4116681   -5.8688287    0.0000000  0.00    0.0023909   -0.0012251   -0.0000000
 C   -0.7091148   -7.0911178    0.0000000  0.00    0.0018106    0.0026464   -0.0000000
 C   -2.7528439   -8.3858272    0.0000000  0.00    0.0016260   -0.0001711   -0.0000000
 C   -1.4008140   -8.3229914    0.0000000  0.00   -0.0019706    0.0002843   -0.0000000
 C   -1.4209178   -3.3423823    0.0000000  0.00    0.0042749   -0.0026504   -0.0000000
 C   -0.7065520   -4.5927730    0.0000000  0.00   -0.0043450    0.0008739   -0.0000000
 C   -1.5831524   -0.8078689    0.0000000  0.00    0.0015411    0.0003920   -0.0000000
 C   -0.7336894   -2.0100692    0.0000000  0.00    0.0000781   -0.0017431   -0.0000000
 H   -8.8520116   -7.3665391    0.0000000  0.00   -0.0006955   -0.0014235   -0.0000000
 H   -7.5532925   -9.4824540    0.0000000  0.00    0.0003372   -0.0012608   -0.0000000
 H   -5.1217153   -9.4369842    0.0000000  0.00   -0.0008925   -0.0011365   -0.0000000
 H   -8.9139800   -4.9437010    0.0000000  0.00    0.0005887    0.0002078   -0.0000000
 H   -9.0066837   -2.5158638    0.0000000  0.00    0.0018897    0.0009438   -0.0000000
 H   -3.2213546   -9.3669069    0.0000000  0.00    0.0000803   -0.0011817   -0.0000000
 H   -0.8676824   -9.2695049    0.0000000  0.00   -0.0027491    0.0011721   -0.0000000
