148
 Energy =   -4513.2433321800
 C    7.1345648   -6.1213643    0.0000000  0.00   -0.0005024    0.0004354   -0.0000000
 C    5.7015645   -6.1229606    0.0000000  0.00   -0.0017626    0.0001222   -0.0000000
 C    7.8213973   -7.3550224    0.0000000  0.00   -0.0004581    0.0007458   -0.0000000
 C    5.0035314   -7.3469350    0.0000000  0.00    0.0005146   -0.0006986   -0.0000000
 C    7.1241702   -8.5444514    0.0000000  0.00    0.0003925   -0.0010084   -0.0000000
 C    5.7325176   -8.5473862    0.0000000  0.00   -0.0003410   -0.0001246   -0.0000000
 C    7.1600732   -3.6720275    0.0000000  0.00    0.0009269   -0.0011705   -0.0000000
 C    5.7166197   -3.6709251    0.0000000  0.00   -0.0005347    0.0010779   -0.0000000
 C    7.8239680   -4.9040835    0.0000000  0.00   -0.0003856    0.0000178   -0.0000000
 C    4.9971346   -4.8795904    0.0000000  0.00    0.0001771   -0.0002487   -0.0000000
 C    7.1910371   -1.2238500    0.0000000  0.00   -0.0006827   -0.0005840   -0.0000000
 C    5.7536192   -1.2257451    0.0000000  0.00    0.0010993   -0.0000217   -0.0000000
 C    7.8523097   -2.4618025    0.0000000  0.00    0.0000671    0.0007968   -0.0000000
 C    5.0211852   -2.4405395    0.0000000  0.00    0.0005490    0.0002299   -0.0000000
 C    7.8656181    0.0000000    0.0000000  0.00    0.0011278   -0.0000000   -0.0000000
 C    5.0493282    0.0000000    0.0000000  0.00   -0.0012624   -0.0000000   -0.0000000
 C    3.5687707   -4.8539042    0.0000000  0.00   -0.0008339    0.0002928   -0.0000000
 C    2.8529945   -6.0781993    0.0000000  0.00   -0.0004392   -0.0013236   -0.0000000
 C    3.5523467   -7.3168681    0.0000000  0.00    0.0005304   -0.0009795   -0.0000000
 C    3.5940891   -2.4214569    0.0000000  0.00   -0.0008224    0.0007949   -0.0000000
 C    2.8611617   -3.6225148    0.0000000  0.00   -0.0001000    0.0001837   -0.0000000
 C    3.6404012    0.0000000    0.0000000  0.00    0.0006833   -0.0000000   -0.0000000
 C    2.8882477   -1.1908087    0.0000000  0.00    0.0002967   -0.0005813   -0.0000000
 C    1.4280223   -6.0404040    0.0000000  0.00    0.0009975    0.0001069   -0.0000000
 C    0.7217574   -7.2648098    0.0000000  0.00   -0.0001495   -0.0000799   -0.0000000
 C    2.8075532   -8.4964529    0.0000000  0.00   -0.0003073   -0.0000287   -0.0000000
 C    1.4371530   -8.4677104    0.0000000  0.00   -0.0007283    0.0000624   -0.0000000
 C    1.4264219   -3.5639289    0.0000000  0.00    0.0003417   -0.0000861   -0.0000000
 C    0.7201058   -4.7863886    0.0000000  0.00   -0.0013686   -0.0001530   -0.0000000
 C    1.4790601   -1.0843572    0.0000000  0.00   -0.0005086    0.0003043   -0.0000000
 C    0.7302631   -2.2718723    0.0000000  0.00   -0.0000768    0.0000651   -0.0000000
 H    8.9055672   -7.3511417    0.0000000  0.00   -0.0020157    0.0000188   -0.0000000
 H    7.6593412   -9.4870669    0.0000000  0.00   -0.0006429    0.0007463   -0.0000000
 H    5.2228973   -9.4997331    0.0000000  0.00    0.0004871    0.0002780   -0.0000000
 H    8.9086614   -4.9154314    0.0000000  0.00    0.0008177    0.0004325   -0.0000000
 H    8.9366768   -2.4778983    0.0000000  0.00    0.0001812    0.0002049   -0.0000000
 H    8.9500957    0.0000000    0.0000000  0.00   -0.0010490   -0.0000000   -0.0000000
 H    3.3014744   -9.4568435    0.0000000  0.00   -0.0003453    0.0000622   -0.0000000
 H    0.9163400   -9.4125196    0.0000000  0.00    0.0006056    0.0003694   -0.0000000
 C   -7.1345648    6.1213643    0.0000000  0.00    0.0005024   -0.0004354   -0.0000000
 C   -5.7015645    6.1229606    0.0000000  0.00    0.0017626   -0.0001222   -0.0000000
 C   -7.8213973    7.3550224    0.0000000  0.00    0.0004581   -0.0007458   -0.0000000
 C   -5.0035314    7.3469350    0.0000000  0.00   -0.0005146    0.0006986   -0.0000000
 C   -7.1241702    8.5444514    0.0000000  0.00   -0.0003925    0.0010084   -0.0000000
 C   -5.7325176    8.5473862    0.0000000  0.00    0.0003410    0.0001246   -0.0000000
 C   -7.1600732    3.6720275    0.0000000  0.00   -0.0009269    0.0011705   -0.0000000
 C   -5.7166197    3.6709251    0.0000000  0.00    0.0005347   -0.0010779   -0.0000000
 C   -7.8239680    4.9040835    0.0000000  0.00    0.0003856   -0.0000178   -0.0000000
 C   -4.9971346    4.8795904    0.0000000  0.00   -0.0001771    0.0002487   -0.0000000
 C   -7.1910371    1.2238500    0.0000000  0.00    0.0006827    0.0005840   -0.0000000
 C   -5.7536192    1.2257451    0.0000000  0.00   -0.0010993    0.0000217   -0.0000000
 C   -7.8523097    2.4618025    0.0000000  0.00   -0.0000671   -0.0007968   -0.0000000
 C   -5.0211852    2.4405395    0.0000000  0.00   -0.0005490   -0.0002299   -0.0000000
 C   -7.8656181    0.0000000    0.0000000  0.00   -0.0011278   -0.0000000   -0.0000000
 C   -5.0493282    0.0000000    0.0000000  0.00    0.0012624   -0.0000000   -0.0000000
 C   -3.5687707    4.8539042    0.0000000  0.00    0.0008339   -0.0002928   -0.0000000
 C   -2.8529945    6.0781993    0.0000000  0.00    0.0004392    0.0013236   -0.0000000
 C   -3.5523467    7.3168681    0.0000000  0.00   -0.0005304    0.0009795   -0.0000000
 C   -3.5940891    2.4214569    0.0000000  0.00    0.0008224   -0.0007949   -0.0000000
 C   -2.8611617    3.6225148    0.0000000  0.00    0.0001000   -0.0001837   -0.0000000
 C   -3.6404012    0.0000000    0.0000000  0.00   -0.0006833   -0.0000000   -0.0000000
 C   -2.8882477    1.1908087    0.0000000  0.00   -0.0002967    0.0005813   -0.0000000
 C   -1.4280223    6.0404040    0.0000000  0.00   -0.0009975   -0.0001069   -0.0000000
 C   -0.7217574    7.2648098    0.0000000  0.00    0.0001495    0.0000799   -0.0000000
 C   -2.8075532    8.4964529    0.0000000  0.00    0.0003073    0.0000287   -0.0000000
 C   -1.4371530    8.4677104    0.0000000  0.00    0.0007283   -0.0000624   -0.0000000
 C   -1.4264219    3.5639289    0.0000000  0.00   -0.0003417    0.0000861   -0.0000000
 C   -0.7201058    4.7863886    0.0000000  0.00    0.0013686    0.0001530   -0.0000000
 C   -1.4790601    1.0843572    0.0000000  0.00    0.0005086   -0.0003043   -0.0000000
 C   -0.7302631    2.2718723    0.0000000  0.00    0.0000768   -0.0000651   -0.0000000
 H   -8.9055672    7.3511417    0.0000000  0.00    0.0020157   -0.0000188   -0.0000000
 H   -7.6593412    9.4870669    0.0000000  0.00    0.0006429   -0.0007463   -0.0000000
 H   -5.2228973    9.4997331    0.0000000  0.00   -0.0004871   -0.0002780   -0.0000000
 H   -8.9086614    4.9154314    0.0000000  0.00   -0.0008177   -0.0004325   -0.0000000
 H   -8.9366768    2.4778983    0.0000000  0.00   -0.0001812   -0.0002049   -0.0000000
 H   -8.9500957    0.0000000    0.0000000  0.00    0.0010490   -0.0000000   -0.0000000
 H   -3.3014744    9.4568435    0.0000000  0.00    0.0003453   -0.0000622   -0.0000000
 H   -0.9163400    9.4125196    0.0000000  0.00   -0.0006056   -0.0003694   -0.0000000
 C    7.1345648    6.1213643    0.0000000  0.00   -0.0005024   -0.0004354   -0.0000000
 C    5.7015645    6.1229606    0.0000000  0.00   -0.0017626   -0.0001222   -0.0000000
 C    7.8213973    7.3550224    0.0000000  0.00   -0.0004581   -0.0007458   -0.0000000
 C    5.0035314    7.3469350    0.0000000  0.00    0.0005146    0.0006986   -0.0000000
 C    7.1241702    8.5444514    0.0000000  0.00    0.0003925    0.0010084   -0.0000000
 C    5.7325176    8.5473862    0.0000000  0.00   -0.0003410    0.0001246   -0.0000000
 C    7.1600732    3.6720275    0.0000000  0.00    0.0009269    0.0011705   -0.0000000
 C    5.7166197    3.6709251    0.0000000  0.00   -0.0005347   -0.0010779   -0.0000000
 C    7.8239680    4.9040835    0.0000000  0.00   -0.0003856   -0.0000178   -0.0000000
 C    4.9971346    4.8795904    0.0000000  0.00    0.0001771    0.0002487   -0.0000000
 C    7.1910371    1.2238500    0.0000000  0.00   -0.0006827    0.0005840   -0.0000000
 C    5.7536192    1.2257451    0.0000000  0.00    0.0010993    0.0000217   -0.0000000
 C    7.8523097    2.4618025    0.0000000  0.00    0.0000671   -0.0007968   -0.0000000
 C    5.0211852    2.4405395    0.0000000  0.00    0.0005490   -0.0002299   -0.0000000
 C    3.5687707    4.8539042    0.0000000  0.00   -0.0008339   -0.0002928   -0.0000000
 C    2.8529945    6.0781993    0.0000000  0.00   -0.0004392    0.0013236   -0.0000000
 C    3.5523467    7.3168681    0.0000000  0.00    0.0005304    0.0009795   -0.0000000
 C    3.5940891    2.4214569    0.0000000  0.00   -0.0008224   -0.0007949   -0.0000000
 C    2.8611617    3.6225148    0.0000000  0.00   -0.0001000   -0.0001837   -0.0000000
 C    2.8882477    1.1908087    0.0000000  0.00    0.0002967    0.0005813   -0.0000000
 C    1.4280223    6.0404040    0.0000000  0.00    0.0009975   -0.0001069   -0.0000000
 C    0.7217574    7.2648098    0.0000000  0.00   -0.0001495    0.0000799   -0.0000000
 C    2.8075532    8.4964529    0.0000000  0.00   -0.0003073    0.0000287   -0.0000000
 C    1.4371530    8.4677104    0.0000000  0.00   -0.0007283   -0.0000624   -0.0000000
 C    1.4264219    3.5639289    0.0000000  0.00    0.0003417    0.0000861   -0.0000000
 C    0.7201058    4.7863886    0.0000000  0.00   -0.0013686    0.0001530   -0.0000000
 C    1.4790601    1.0843572    0.0000000  0.00   -0.0005086   -0.0003043   -0.0000000
 C    0.7302631    2.2718723    0.0000000  0.00   -0.0000768   -0.0000651   -0.0000000
 H    8.9055672    7.3511417    0.0000000  0.00   -0.0020157   -0.0000188   -0.0000000
 H    7.6593412    9.4870669    0.0000000  0.00   -0.0006429   -0.0007463   -0.0000000
 H    5.2228973    9.4997331    0.0000000  0.00    0.0004871   -0.0002780   -0.0000000
 H    8.9086614    4.9154314    0.0000000  0.00    0.0008177   -0.0004325   -0.0000000
 H    8.9366768    2.4778983    0.0000000  0.00    0.0001812   -0.0002049   -0.0000000
 H    3.3014744    9.4568435    0.0000000  0.00   -0.0003453   -0.0000622   -0.0000000
 H    0.9163400    9.4125196    0.0000000  0.00    0.0006056   -0.0003694   -0.0000000
 C   -7.1345648   -6.1213643    0.0000000  0.00    0.0005024    0.0004354   -0.0000000
 C   -5.7015645   -6.1229606    0.0000000  0.00    0.0017626    0.0001222   -0.0000000
 C   -7.8213973   -7.3550224    0.0000000  0.00    0.0004581    0.0007458   -0.0000000
 C   -5.0035314   -7.3469350    0.0000000  0.00   -0.0005146   -0.0006986   -0.0000000
 C   -7.1241702   -8.5444514    0.0000000  0.00   -0.0003925   -0.0010084   -0.0000000
 C   -5.7325176   -8.5473862    0.0000000  0.00    0.0003410   -0.0001246   -0.0000000
 C   -7.1600732   -3.6720275    0.0000000  0.00   -0.0009269   -0.0011705   -0.0000000
 C   -5.7166197   -3.6709251    0.0000000  0.00    0.0005347    0.0010779   -0.0000000
 C   -7.8239680   -4.9040835    0.0000000  0.00    0.0003856    0.0000178   -0.0000000
 C   -4.9971346   -4.8795904    0.0000000  0.00   -0.0001771   -0.0002487   -0.0000000
 C   -7.1910371   -1.2238500    0.0000000  0.00    0.0006827   -0.0005840   -0.0000000
 C   -5.7536192   -1.2257451    0.0000000  0.00   -0.0010993   -0.0000217   -0.0000000
 C   -7.8523097   -2.4618025    0.0000000  0.00   -0.0000671    0.0007968   -0.0000000
 C   -5.0211852   -2.4405395    0.0000000  0.00   -0.0005490    0.0002299   -0.0000000
 C   -3.5687707   -4.8539042    0.0000000  0.00    0.0008339    0.0002928   -0.0000000
 C   -2.8529945   -6.0781993    0.0000000  0.00    0.0004392   -0.0013236   -0.0000000
 C   -3.5523467   -7.3168681    0.0000000  0.00   -0.0005304   -0.0009795   -0.0000000
 C   -3.5940891   -2.4214569    0.0000000  0.00    0.0008224    0.0007949   -0.0000000
 C   -2.8611617   -3.6225148    0.0000000  0.00    0.0001000    0.0001837   -0.0000000
 C   -2.8882477   -1.1908087    0.0000000  0.00   -0.0002967   -0.0005813   -0.0000000
 C   -1.4280223   -6.0404040    0.0000000  0.00   -0.0009975    0.0001069   -0.0000000
 C   -0.7217574   -7.2648098    0.0000000  0.00    0.0001495   -0.0000799   -0.0000000
 C   -2.8075532   -8.4964529    0.0000000  0.00    0.0003073   -0.0000287   -0.0000000
 C   -1.4371530   -8.4677104    0.0000000  0.00    0.0007283    0.0000624   -0.0000000
 C   -1.4264219   -3.5639289    0.0000000  0.00   -0.0003417   -0.0000861   -0.0000000
 C   -0.7201058   -4.7863886    0.0000000  0.00    0.0013686   -0.0001530   -0.0000000
 C   -1.4790601   -1.0843572    0.0000000  0.00    0.0005086    0.0003043   -0.0000000
 C   -0.7302631   -2.2718723    0.0000000  0.00    0.0000768    0.0000651   -0.0000000
 H   -8.9055672   -7.3511417    0.0000000  0.00    0.0020157    0.0000188   -0.0000000
 H   -7.6593412   -9.4870669    0.0000000  0.00    0.0006429    0.0007463   -0.0000000
 H   -5.2228973   -9.4997331    0.0000000  0.00   -0.0004871    0.0002780   -0.0000000
 H   -8.9086614   -4.9154314    0.0000000  0.00   -0.0008177    0.0004325   -0.0000000
 H   -8.9366768   -2.4778983    0.0000000  0.00   -0.0001812    0.0002049   -0.0000000
 H   -3.3014744   -9.4568435    0.0000000  0.00    0.0003453    0.0000622   -0.0000000
 H   -0.9163400   -9.4125196    0.0000000  0.00   -0.0006056    0.0003694   -0.0000000
