148
 Energy =   -4513.4169349560
 C    7.1211763   -6.0911490    0.0000000  0.00   -0.0004739    0.0003915   -0.0000000
 C    5.6860383   -6.0486061    0.0000000  0.00   -0.0014858    0.0000293   -0.0000000
 C    7.7832704   -7.3413076    0.0000000  0.00    0.0022072    0.0001880   -0.0000000
 C    4.9625409   -7.2594930    0.0000000  0.00   -0.0008594   -0.0007374   -0.0000000
 C    7.0596285   -8.5076155    0.0000000  0.00    0.0020314   -0.0014033   -0.0000000
 C    5.6632253   -8.4684200    0.0000000  0.00    0.0006967    0.0006879   -0.0000000
 C    7.2021162   -3.6606634    0.0000000  0.00    0.0021295    0.0033356   -0.0000000
 C    5.7578451   -3.6249938    0.0000000  0.00    0.0015272   -0.0026326   -0.0000000
 C    7.8445245   -4.8977672    0.0000000  0.00   -0.0011238    0.0010384   -0.0000000
 C    5.0015863   -4.8011003    0.0000000  0.00    0.0019556    0.0002432   -0.0000000
 C    7.3003886   -1.2266790    0.0000000  0.00   -0.0011674    0.0021828   -0.0000000
 C    5.8604807   -1.2184423    0.0000000  0.00    0.0010623    0.0002415   -0.0000000
 C    7.9390754   -2.4658993    0.0000000  0.00    0.0002196    0.0001352   -0.0000000
 C    5.0880692   -2.3895807    0.0000000  0.00   -0.0004779    0.0010639   -0.0000000
 C    7.9864707    0.0000000    0.0000000  0.00    0.0006402   -0.0000000   -0.0000000
 C    5.1807190    0.0000000    0.0000000  0.00   -0.0007229   -0.0000000   -0.0000000
 C    3.5599834   -4.7294587    0.0000000  0.00    0.0007924   -0.0009599   -0.0000000
 C    2.8343243   -5.9423813    0.0000000  0.00   -0.0026460   -0.0004169   -0.0000000
 C    3.5141654   -7.1894336    0.0000000  0.00   -0.0011667   -0.0003737   -0.0000000
 C    3.6464144   -2.3376652    0.0000000  0.00    0.0026235   -0.0016221   -0.0000000
 C    2.8658964   -3.4966739    0.0000000  0.00   -0.0004200   -0.0001785   -0.0000000
 C    3.7938963    0.0000000    0.0000000  0.00    0.0011538   -0.0000000   -0.0000000
 C    2.9893127   -1.1155848    0.0000000  0.00   -0.0025426    0.0020286   -0.0000000
 C    1.4153516   -5.8535067    0.0000000  0.00   -0.0010335    0.0010643   -0.0000000
 C    0.7134582   -7.0757336    0.0000000  0.00   -0.0008294    0.0007859   -0.0000000
 C    2.7621284   -8.3622887    0.0000000  0.00   -0.0019523    0.0000178   -0.0000000
 C    1.4040592   -8.2992555    0.0000000  0.00   -0.0007683    0.0005359   -0.0000000
 C    1.4149160   -3.3279110    0.0000000  0.00    0.0007664    0.0016015   -0.0000000
 C    0.7092803   -4.5733589    0.0000000  0.00    0.0012817    0.0008325   -0.0000000
 C    1.5805810   -0.7615135    0.0000000  0.00   -0.0002003    0.0007476   -0.0000000
 C    0.7239485   -2.0011521    0.0000000  0.00   -0.0001802    0.0015572   -0.0000000
 H    8.8671870   -7.3589760    0.0000000  0.00   -0.0002083   -0.0005767   -0.0000000
 H    7.5652374   -9.4659401    0.0000000  0.00    0.0031383   -0.0023790   -0.0000000
 H    5.1320581   -9.4090495    0.0000000  0.00    0.0032039    0.0008474   -0.0000000
 H    8.9287947   -4.9337990    0.0000000  0.00   -0.0002421   -0.0006726   -0.0000000
 H    9.0227590   -2.5165542    0.0000000  0.00   -0.0011054    0.0014608   -0.0000000
 H    9.0710446    0.0000000    0.0000000  0.00   -0.0013580   -0.0000000   -0.0000000
 H    3.2387481   -9.3308965    0.0000000  0.00   -0.0007578    0.0010902   -0.0000000
 H    0.8664015   -9.2318651    0.0000000  0.00    0.0001733    0.0028379   -0.0000000
 C   -7.1211763    6.0911490    0.0000000  0.00    0.0004739   -0.0003915   -0.0000000
 C   -5.6860383    6.0486061    0.0000000  0.00    0.0014858   -0.0000293   -0.0000000
 C   -7.7832704    7.3413076    0.0000000  0.00   -0.0022072   -0.0001880   -0.0000000
 C   -4.9625409    7.2594930    0.0000000  0.00    0.0008594    0.0007374   -0.0000000
 C   -7.0596285    8.5076155    0.0000000  0.00   -0.0020314    0.0014033   -0.0000000
 C   -5.6632253    8.4684200    0.0000000  0.00   -0.0006967   -0.0006879   -0.0000000
 C   -7.2021162    3.6606634    0.0000000  0.00   -0.0021295   -0.0033356   -0.0000000
 C   -5.7578451    3.6249938    0.0000000  0.00   -0.0015272    0.0026326   -0.0000000
 C   -7.8445245    4.8977672    0.0000000  0.00    0.0011238   -0.0010384   -0.0000000
 C   -5.0015863    4.8011003    0.0000000  0.00   -0.0019556   -0.0002432   -0.0000000
 C   -7.3003886    1.2266790    0.0000000  0.00    0.0011674   -0.0021828   -0.0000000
 C   -5.8604807    1.2184423    0.0000000  0.00   -0.0010623   -0.0002415   -0.0000000
 C   -7.9390754    2.4658993    0.0000000  0.00   -0.0002196   -0.0001352   -0.0000000
 C   -5.0880692    2.3895807    0.0000000  0.00    0.0004779   -0.0010639   -0.0000000
 C   -7.9864707    0.0000000    0.0000000  0.00   -0.0006402   -0.0000000   -0.0000000
 C   -5.1807190    0.0000000    0.0000000  0.00    0.0007229   -0.0000000   -0.0000000
 C   -3.5599834    4.7294587    0.0000000  0.00   -0.0007924    0.0009599   -0.0000000
 C   -2.8343243    5.9423813    0.0000000  0.00    0.0026460    0.0004169   -0.0000000
 C   -3.5141654    7.1894336    0.0000000  0.00    0.0011667    0.0003737   -0.0000000
 C   -3.6464144    2.3376652    0.0000000  0.00   -0.0026235    0.0016221   -0.0000000
 C   -2.8658964    3.4966739    0.0000000  0.00    0.0004200    0.0001785   -0.0000000
 C   -3.7938963    0.0000000    0.0000000  0.00   -0.0011538   -0.0000000   -0.0000000
 C   -2.9893127    1.1155848    0.0000000  0.00    0.0025426   -0.0020286   -0.0000000
 C   -1.4153516    5.8535067    0.0000000  0.00    0.0010335   -0.0010643   -0.0000000
 C   -0.7134582    7.0757336    0.0000000  0.00    0.0008294   -0.0007859   -0.0000000
 C   -2.7621284    8.3622887    0.0000000  0.00    0.0019523   -0.0000178   -0.0000000
 C   -1.4040592    8.2992555    0.0000000  0.00    0.0007683   -0.0005359   -0.0000000
 C   -1.4149160    3.3279110    0.0000000  0.00   -0.0007664   -0.0016015   -0.0000000
 C   -0.7092803    4.5733589    0.0000000  0.00   -0.0012817   -0.0008325   -0.0000000
 C   -1.5805810    0.7615135    0.0000000  0.00    0.0002003   -0.0007476   -0.0000000
 C   -0.7239485    2.0011521    0.0000000  0.00    0.0001802   -0.0015572   -0.0000000
 H   -8.8671870    7.3589760    0.0000000  0.00    0.0002083    0.0005767   -0.0000000
 H   -7.5652374    9.4659401    0.0000000  0.00   -0.0031383    0.0023790   -0.0000000
 H   -5.1320581    9.4090495    0.0000000  0.00   -0.0032039   -0.0008474   -0.0000000
 H   -8.9287947    4.9337990    0.0000000  0.00    0.0002421    0.0006726   -0.0000000
 H   -9.0227590    2.5165542    0.0000000  0.00    0.0011054   -0.0014608   -0.0000000
 H   -9.0710446    0.0000000    0.0000000  0.00    0.0013580   -0.0000000   -0.0000000
 H   -3.2387481    9.3308965    0.0000000  0.00    0.0007578   -0.0010902   -0.0000000
 H   -0.8664015    9.2318651    0.0000000  0.00   -0.0001733   -0.0028379   -0.0000000
 C    7.1211763    6.0911490    0.0000000  0.00   -0.0004739   -0.0003915   -0.0000000
 C    5.6860383    6.0486061    0.0000000  0.00   -0.0014858   -0.0000293   -0.0000000
 C    7.7832704    7.3413076    0.0000000  0.00    0.0022072   -0.0001880   -0.0000000
 C    4.9625409    7.2594930    0.0000000  0.00   -0.0008594    0.0007374   -0.0000000
 C    7.0596285    8.5076155    0.0000000  0.00    0.0020314    0.0014033   -0.0000000
 C    5.6632253    8.4684200    0.0000000  0.00    0.0006967   -0.0006879   -0.0000000
 C    7.2021162    3.6606634    0.0000000  0.00    0.0021295   -0.0033356   -0.0000000
 C    5.7578451    3.6249938    0.0000000  0.00    0.0015272    0.0026326   -0.0000000
 C    7.8445245    4.8977672    0.0000000  0.00   -0.0011238   -0.0010384   -0.0000000
 C    5.0015863    4.8011003    0.0000000  0.00    0.0019556   -0.0002432   -0.0000000
 C    7.3003886    1.2266790    0.0000000  0.00   -0.0011674   -0.0021828   -0.0000000
 C    5.8604807    1.2184423    0.0000000  0.00    0.0010623   -0.0002415   -0.0000000
 C    7.9390754    2.4658993    0.0000000  0.00    0.0002196   -0.0001352   -0.0000000
 C    5.0880692    2.3895807    0.0000000  0.00   -0.0004779   -0.0010639   -0.0000000
 C    3.5599834    4.7294587    0.0000000  0.00    0.0007924    0.0009599   -0.0000000
 C    2.8343243    5.9423813    0.0000000  0.00   -0.0026460    0.0004169   -0.0000000
 C    3.5141654    7.1894336    0.0000000  0.00   -0.0011667    0.0003737   -0.0000000
 C    3.6464144    2.3376652    0.0000000  0.00    0.0026235    0.0016221   -0.0000000
 C    2.8658964    3.4966739    0.0000000  0.00   -0.0004200    0.0001785   -0.0000000
 C    2.9893127    1.1155848    0.0000000  0.00   -0.0025426   -0.0020286   -0.0000000
 C    1.4153516    5.8535067    0.0000000  0.00   -0.0010335   -0.0010643   -0.0000000
 C    0.7134582    7.0757336    0.0000000  0.00   -0.0008294   -0.0007859   -0.0000000
 C    2.7621284    8.3622887    0.0000000  0.00   -0.0019523   -0.0000178   -0.0000000
 C    1.4040592    8.2992555    0.0000000  0.00   -0.0007683   -0.0005359   -0.0000000
 C    1.4149160    3.3279110    0.0000000  0.00    0.0007664   -0.0016015   -0.0000000
 C    0.7092803    4.5733589    0.0000000  0.00    0.0012817   -0.0008325   -0.0000000
 C    1.5805810    0.7615135    0.0000000  0.00   -0.0002003   -0.0007476   -0.0000000
 C    0.7239485    2.0011521    0.0000000  0.00   -0.0001802   -0.0015572   -0.0000000
 H    8.8671870    7.3589760    0.0000000  0.00   -0.0002083    0.0005767   -0.0000000
 H    7.5652374    9.4659401    0.0000000  0.00    0.0031383    0.0023790   -0.0000000
 H    5.1320581    9.4090495    0.0000000  0.00    0.0032039   -0.0008474   -0.0000000
 H    8.9287947    4.9337990    0.0000000  0.00   -0.0002421    0.0006726   -0.0000000
 H    9.0227590    2.5165542    0.0000000  0.00   -0.0011054   -0.0014608   -0.0000000
 H    3.2387481    9.3308965    0.0000000  0.00   -0.0007578   -0.0010902   -0.0000000
 H    0.8664015    9.2318651    0.0000000  0.00    0.0001733   -0.0028379   -0.0000000
 C   -7.1211763   -6.0911490    0.0000000  0.00    0.0004739    0.0003915   -0.0000000
 C   -5.6860383   -6.0486061    0.0000000  0.00    0.0014858    0.0000293   -0.0000000
 C   -7.7832704   -7.3413076    0.0000000  0.00   -0.0022072    0.0001880   -0.0000000
 C   -4.9625409   -7.2594930    0.0000000  0.00    0.0008594   -0.0007374   -0.0000000
 C   -7.0596285   -8.5076155    0.0000000  0.00   -0.0020314   -0.0014033   -0.0000000
 C   -5.6632253   -8.4684200    0.0000000  0.00   -0.0006967    0.0006879   -0.0000000
 C   -7.2021162   -3.6606634    0.0000000  0.00   -0.0021295    0.0033356   -0.0000000
 C   -5.7578451   -3.6249938    0.0000000  0.00   -0.0015272   -0.0026326   -0.0000000
 C   -7.8445245   -4.8977672    0.0000000  0.00    0.0011238    0.0010384   -0.0000000
 C   -5.0015863   -4.8011003    0.0000000  0.00   -0.0019556    0.0002432   -0.0000000
 C   -7.3003886   -1.2266790    0.0000000  0.00    0.0011674    0.0021828   -0.0000000
 C   -5.8604807   -1.2184423    0.0000000  0.00   -0.0010623    0.0002415   -0.0000000
 C   -7.9390754   -2.4658993    0.0000000  0.00   -0.0002196    0.0001352   -0.0000000
 C   -5.0880692   -2.3895807    0.0000000  0.00    0.0004779    0.0010639   -0.0000000
 C   -3.5599834   -4.7294587    0.0000000  0.00   -0.0007924   -0.0009599   -0.0000000
 C   -2.8343243   -5.9423813    0.0000000  0.00    0.0026460   -0.0004169   -0.0000000
 C   -3.5141654   -7.1894336    0.0000000  0.00    0.0011667   -0.0003737   -0.0000000
 C   -3.6464144   -2.3376652    0.0000000  0.00   -0.0026235   -0.0016221   -0.0000000
 C   -2.8658964   -3.4966739    0.0000000  0.00    0.0004200   -0.0001785   -0.0000000
 C   -2.9893127   -1.1155848    0.0000000  0.00    0.0025426    0.0020286   -0.0000000
 C   -1.4153516   -5.8535067    0.0000000  0.00    0.0010335    0.0010643   -0.0000000
 C   -0.7134582   -7.0757336    0.0000000  0.00    0.0008294    0.0007859   -0.0000000
 C   -2.7621284   -8.3622887    0.0000000  0.00    0.0019523    0.0000178   -0.0000000
 C   -1.4040592   -8.2992555    0.0000000  0.00    0.0007683    0.0005359   -0.0000000
 C   -1.4149160   -3.3279110    0.0000000  0.00   -0.0007664    0.0016015   -0.0000000
 C   -0.7092803   -4.5733589    0.0000000  0.00   -0.0012817    0.0008325   -0.0000000
 C   -1.5805810   -0.7615135    0.0000000  0.00    0.0002003    0.0007476   -0.0000000
 C   -0.7239485   -2.0011521    0.0000000  0.00    0.0001802    0.0015572   -0.0000000
 H   -8.8671870   -7.3589760    0.0000000  0.00    0.0002083   -0.0005767   -0.0000000
 H   -7.5652374   -9.4659401    0.0000000  0.00   -0.0031383   -0.0023790   -0.0000000
 H   -5.1320581   -9.4090495    0.0000000  0.00   -0.0032039    0.0008474   -0.0000000
 H   -8.9287947   -4.9337990    0.0000000  0.00    0.0002421   -0.0006726   -0.0000000
 H   -9.0227590   -2.5165542    0.0000000  0.00    0.0011054    0.0014608   -0.0000000
 H   -3.2387481   -9.3308965    0.0000000  0.00    0.0007578    0.0010902   -0.0000000
 H   -0.8664015   -9.2318651    0.0000000  0.00   -0.0001733    0.0028379   -0.0000000
