148
 Energy =   -4513.4079019510
 C    7.1142952   -6.1045421    0.0000000  0.00    0.0006645    0.0021419   -0.0000000
 C    5.6811821   -6.0663782    0.0000000  0.00   -0.0000829   -0.0009547   -0.0000000
 C    7.7760807   -7.3506309    0.0000000  0.00   -0.0000472   -0.0011012   -0.0000000
 C    4.9575884   -7.2766889    0.0000000  0.00    0.0015384    0.0015233   -0.0000000
 C    7.0531191   -8.5240105    0.0000000  0.00    0.0002810    0.0027938   -0.0000000
 C    5.6627335   -8.4919022    0.0000000  0.00   -0.0003904   -0.0023921   -0.0000000
 C    7.1915642   -3.6705304    0.0000000  0.00    0.0002134   -0.0002448   -0.0000000
 C    5.7499752   -3.6344345    0.0000000  0.00    0.0005890   -0.0005576   -0.0000000
 C    7.8353135   -4.9032582    0.0000000  0.00   -0.0002366   -0.0004819   -0.0000000
 C    4.9931664   -4.8175043    0.0000000  0.00    0.0003996    0.0005050   -0.0000000
 C    7.2777498   -1.2318001    0.0000000  0.00   -0.0002147   -0.0009733   -0.0000000
 C    5.8418271   -1.2222186    0.0000000  0.00   -0.0005062   -0.0005225   -0.0000000
 C    7.9244033   -2.4652717    0.0000000  0.00   -0.0010439    0.0000166   -0.0000000
 C    5.0769767   -2.4000728    0.0000000  0.00   -0.0001003    0.0003798   -0.0000000
 C    7.9627044    0.0000000    0.0000000  0.00   -0.0003470   -0.0000000   -0.0000000
 C    5.1647073    0.0000000    0.0000000  0.00   -0.0010797   -0.0000000   -0.0000000
 C    3.5616156   -4.7528108    0.0000000  0.00   -0.0012213    0.0000197   -0.0000000
 C    2.8353858   -5.9570803    0.0000000  0.00    0.0022172    0.0007564   -0.0000000
 C    3.5161941   -7.2075324    0.0000000  0.00    0.0000585   -0.0013112   -0.0000000
 C    3.6401561   -2.3536291    0.0000000  0.00   -0.0004345   -0.0025171   -0.0000000
 C    2.8609884   -3.5064940    0.0000000  0.00    0.0004888    0.0006540   -0.0000000
 C    3.7754991    0.0000000    0.0000000  0.00    0.0000476   -0.0000000   -0.0000000
 C    2.9765519   -1.1276841    0.0000000  0.00    0.0001836    0.0007799   -0.0000000
 C    1.4135731   -5.8689879    0.0000000  0.00    0.0000921    0.0004315   -0.0000000
 C    0.7102070   -7.0909567    0.0000000  0.00    0.0007101    0.0000542   -0.0000000
 C    2.7587360   -8.3823784    0.0000000  0.00    0.0005033    0.0002186   -0.0000000
 C    1.4042599   -8.3197074    0.0000000  0.00   -0.0004565   -0.0005118   -0.0000000
 C    1.4229070   -3.3448588    0.0000000  0.00   -0.0001433    0.0009699   -0.0000000
 C    0.7084783   -4.5933165    0.0000000  0.00   -0.0001668    0.0004706   -0.0000000
 C    1.5816078   -0.8112574    0.0000000  0.00    0.0009625   -0.0007972   -0.0000000
 C    0.7364600   -2.0081724    0.0000000  0.00    0.0011051    0.0008162   -0.0000000
 H    8.8599789   -7.3688983    0.0000000  0.00   -0.0001312    0.0019755   -0.0000000
 H    7.5652247   -9.4793766    0.0000000  0.00   -0.0006899    0.0016150   -0.0000000
 H    5.1328842   -9.4328723    0.0000000  0.00    0.0007894   -0.0016295   -0.0000000
 H    8.9194857   -4.9377454    0.0000000  0.00    0.0006636    0.0004869   -0.0000000
 H    9.0080859   -2.5085138    0.0000000  0.00    0.0016705   -0.0013306   -0.0000000
 H    9.0473579    0.0000000    0.0000000  0.00    0.0008578   -0.0000000   -0.0000000
 H    3.2360725   -9.3504741    0.0000000  0.00    0.0003955   -0.0002641   -0.0000000
 H    0.8654778   -9.2509816    0.0000000  0.00   -0.0016720   -0.0023766   -0.0000000
 C   -7.1142952    6.1045421    0.0000000  0.00   -0.0006645   -0.0021419   -0.0000000
 C   -5.6811821    6.0663782    0.0000000  0.00    0.0000829    0.0009547   -0.0000000
 C   -7.7760807    7.3506309    0.0000000  0.00    0.0000472    0.0011012   -0.0000000
 C   -4.9575884    7.2766889    0.0000000  0.00   -0.0015384   -0.0015233   -0.0000000
 C   -7.0531191    8.5240105    0.0000000  0.00   -0.0002810   -0.0027938   -0.0000000
 C   -5.6627335    8.4919022    0.0000000  0.00    0.0003904    0.0023921   -0.0000000
 C   -7.1915642    3.6705304    0.0000000  0.00   -0.0002134    0.0002448   -0.0000000
 C   -5.7499752    3.6344345    0.0000000  0.00   -0.0005890    0.0005576   -0.0000000
 C   -7.8353135    4.9032582    0.0000000  0.00    0.0002366    0.0004819   -0.0000000
 C   -4.9931664    4.8175043    0.0000000  0.00   -0.0003996   -0.0005050   -0.0000000
 C   -7.2777498    1.2318001    0.0000000  0.00    0.0002147    0.0009733   -0.0000000
 C   -5.8418271    1.2222186    0.0000000  0.00    0.0005062    0.0005225   -0.0000000
 C   -7.9244033    2.4652717    0.0000000  0.00    0.0010439   -0.0000166   -0.0000000
 C   -5.0769767    2.4000728    0.0000000  0.00    0.0001003   -0.0003798   -0.0000000
 C   -7.9627044    0.0000000    0.0000000  0.00    0.0003470   -0.0000000   -0.0000000
 C   -5.1647073    0.0000000    0.0000000  0.00    0.0010797   -0.0000000   -0.0000000
 C   -3.5616156    4.7528108    0.0000000  0.00    0.0012213   -0.0000197   -0.0000000
 C   -2.8353858    5.9570803    0.0000000  0.00   -0.0022172   -0.0007564   -0.0000000
 C   -3.5161941    7.2075324    0.0000000  0.00   -0.0000585    0.0013112   -0.0000000
 C   -3.6401561    2.3536291    0.0000000  0.00    0.0004345    0.0025171   -0.0000000
 C   -2.8609884    3.5064940    0.0000000  0.00   -0.0004888   -0.0006540   -0.0000000
 C   -3.7754991    0.0000000    0.0000000  0.00   -0.0000476   -0.0000000   -0.0000000
 C   -2.9765519    1.1276841    0.0000000  0.00   -0.0001836   -0.0007799   -0.0000000
 C   -1.4135731    5.8689879    0.0000000  0.00   -0.0000921   -0.0004315   -0.0000000
 C   -0.7102070    7.0909567    0.0000000  0.00   -0.0007101   -0.0000542   -0.0000000
 C   -2.7587360    8.3823784    0.0000000  0.00   -0.0005033   -0.0002186   -0.0000000
 C   -1.4042599    8.3197074    0.0000000  0.00    0.0004565    0.0005118   -0.0000000
 C   -1.4229070    3.3448588    0.0000000  0.00    0.0001433   -0.0009699   -0.0000000
 C   -0.7084783    4.5933165    0.0000000  0.00    0.0001668   -0.0004706   -0.0000000
 C   -1.5816078    0.8112574    0.0000000  0.00   -0.0009625    0.0007972   -0.0000000
 C   -0.7364600    2.0081724    0.0000000  0.00   -0.0011051   -0.0008162   -0.0000000
 H   -8.8599789    7.3688983    0.0000000  0.00    0.0001312   -0.0019755   -0.0000000
 H   -7.5652247    9.4793766    0.0000000  0.00    0.0006899   -0.0016150   -0.0000000
 H   -5.1328842    9.4328723    0.0000000  0.00   -0.0007894    0.0016295   -0.0000000
 H   -8.9194857    4.9377454    0.0000000  0.00   -0.0006636   -0.0004869   -0.0000000
 H   -9.0080859    2.5085138    0.0000000  0.00   -0.0016705    0.0013306   -0.0000000
 H   -9.0473579    0.0000000    0.0000000  0.00   -0.0008578   -0.0000000   -0.0000000
 H   -3.2360725    9.3504741    0.0000000  0.00   -0.0003955    0.0002641   -0.0000000
 H   -0.8654778    9.2509816    0.0000000  0.00    0.0016720    0.0023766   -0.0000000
 C    7.1142952    6.1045421    0.0000000  0.00    0.0006645   -0.0021419   -0.0000000
 C    5.6811821    6.0663782    0.0000000  0.00   -0.0000829    0.0009547   -0.0000000
 C    7.7760807    7.3506309    0.0000000  0.00   -0.0000472    0.0011012   -0.0000000
 C    4.9575884    7.2766889    0.0000000  0.00    0.0015384   -0.0015233   -0.0000000
 C    7.0531191    8.5240105    0.0000000  0.00    0.0002810   -0.0027938   -0.0000000
 C    5.6627335    8.4919022    0.0000000  0.00   -0.0003904    0.0023921   -0.0000000
 C    7.1915642    3.6705304    0.0000000  0.00    0.0002134    0.0002448   -0.0000000
 C    5.7499752    3.6344345    0.0000000  0.00    0.0005890    0.0005576   -0.0000000
 C    7.8353135    4.9032582    0.0000000  0.00   -0.0002366    0.0004819   -0.0000000
 C    4.9931664    4.8175043    0.0000000  0.00    0.0003996   -0.0005050   -0.0000000
 C    7.2777498    1.2318001    0.0000000  0.00   -0.0002147    0.0009733   -0.0000000
 C    5.8418271    1.2222186    0.0000000  0.00   -0.0005062    0.0005225   -0.0000000
 C    7.9244033    2.4652717    0.0000000  0.00   -0.0010439   -0.0000166   -0.0000000
 C    5.0769767    2.4000728    0.0000000  0.00   -0.0001003   -0.0003798   -0.0000000
 C    3.5616156    4.7528108    0.0000000  0.00   -0.0012213   -0.0000197   -0.0000000
 C    2.8353858    5.9570803    0.0000000  0.00    0.0022172   -0.0007564   -0.0000000
 C    3.5161941    7.2075324    0.0000000  0.00    0.0000585    0.0013112   -0.0000000
 C    3.6401561    2.3536291    0.0000000  0.00   -0.0004345    0.0025171   -0.0000000
 C    2.8609884    3.5064940    0.0000000  0.00    0.0004888   -0.0006540   -0.0000000
 C    2.9765519    1.1276841    0.0000000  0.00    0.0001836   -0.0007799   -0.0000000
 C    1.4135731    5.8689879    0.0000000  0.00    0.0000921   -0.0004315   -0.0000000
 C    0.7102070    7.0909567    0.0000000  0.00    0.0007101   -0.0000542   -0.0000000
 C    2.7587360    8.3823784    0.0000000  0.00    0.0005033   -0.0002186   -0.0000000
 C    1.4042599    8.3197074    0.0000000  0.00   -0.0004565    0.0005118   -0.0000000
 C    1.4229070    3.3448588    0.0000000  0.00   -0.0001433   -0.0009699   -0.0000000
 C    0.7084783    4.5933165    0.0000000  0.00   -0.0001668   -0.0004706   -0.0000000
 C    1.5816078    0.8112574    0.0000000  0.00    0.0009625    0.0007972   -0.0000000
 C    0.7364600    2.0081724    0.0000000  0.00    0.0011051   -0.0008162   -0.0000000
 H    8.8599789    7.3688983    0.0000000  0.00   -0.0001312   -0.0019755   -0.0000000
 H    7.5652247    9.4793766    0.0000000  0.00   -0.0006899   -0.0016150   -0.0000000
 H    5.1328842    9.4328723    0.0000000  0.00    0.0007894    0.0016295   -0.0000000
 H    8.9194857    4.9377454    0.0000000  0.00    0.0006636   -0.0004869   -0.0000000
 H    9.0080859    2.5085138    0.0000000  0.00    0.0016705    0.0013306   -0.0000000
 H    3.2360725    9.3504741    0.0000000  0.00    0.0003955    0.0002641   -0.0000000
 H    0.8654778    9.2509816    0.0000000  0.00   -0.0016720    0.0023766   -0.0000000
 C   -7.1142952   -6.1045421    0.0000000  0.00   -0.0006645    0.0021419   -0.0000000
 C   -5.6811821   -6.0663782    0.0000000  0.00    0.0000829   -0.0009547   -0.0000000
 C   -7.7760807   -7.3506309    0.0000000  0.00    0.0000472   -0.0011012   -0.0000000
 C   -4.9575884   -7.2766889    0.0000000  0.00   -0.0015384    0.0015233   -0.0000000
 C   -7.0531191   -8.5240105    0.0000000  0.00   -0.0002810    0.0027938   -0.0000000
 C   -5.6627335   -8.4919022    0.0000000  0.00    0.0003904   -0.0023921   -0.0000000
 C   -7.1915642   -3.6705304    0.0000000  0.00   -0.0002134   -0.0002448   -0.0000000
 C   -5.7499752   -3.6344345    0.0000000  0.00   -0.0005890   -0.0005576   -0.0000000
 C   -7.8353135   -4.9032582    0.0000000  0.00    0.0002366   -0.0004819   -0.0000000
 C   -4.9931664   -4.8175043    0.0000000  0.00   -0.0003996    0.0005050   -0.0000000
 C   -7.2777498   -1.2318001    0.0000000  0.00    0.0002147   -0.0009733   -0.0000000
 C   -5.8418271   -1.2222186    0.0000000  0.00    0.0005062   -0.0005225   -0.0000000
 C   -7.9244033   -2.4652717    0.0000000  0.00    0.0010439    0.0000166   -0.0000000
 C   -5.0769767   -2.4000728    0.0000000  0.00    0.0001003    0.0003798   -0.0000000
 C   -3.5616156   -4.7528108    0.0000000  0.00    0.0012213    0.0000197   -0.0000000
 C   -2.8353858   -5.9570803    0.0000000  0.00   -0.0022172    0.0007564   -0.0000000
 C   -3.5161941   -7.2075324    0.0000000  0.00   -0.0000585   -0.0013112   -0.0000000
 C   -3.6401561   -2.3536291    0.0000000  0.00    0.0004345   -0.0025171   -0.0000000
 C   -2.8609884   -3.5064940    0.0000000  0.00   -0.0004888    0.0006540   -0.0000000
 C   -2.9765519   -1.1276841    0.0000000  0.00   -0.0001836    0.0007799   -0.0000000
 C   -1.4135731   -5.8689879    0.0000000  0.00   -0.0000921    0.0004315   -0.0000000
 C   -0.7102070   -7.0909567    0.0000000  0.00   -0.0007101    0.0000542   -0.0000000
 C   -2.7587360   -8.3823784    0.0000000  0.00   -0.0005033    0.0002186   -0.0000000
 C   -1.4042599   -8.3197074    0.0000000  0.00    0.0004565   -0.0005118   -0.0000000
 C   -1.4229070   -3.3448588    0.0000000  0.00    0.0001433    0.0009699   -0.0000000
 C   -0.7084783   -4.5933165    0.0000000  0.00    0.0001668    0.0004706   -0.0000000
 C   -1.5816078   -0.8112574    0.0000000  0.00   -0.0009625   -0.0007972   -0.0000000
 C   -0.7364600   -2.0081724    0.0000000  0.00   -0.0011051    0.0008162   -0.0000000
 H   -8.8599789   -7.3688983    0.0000000  0.00    0.0001312    0.0019755   -0.0000000
 H   -7.5652247   -9.4793766    0.0000000  0.00    0.0006899    0.0016150   -0.0000000
 H   -5.1328842   -9.4328723    0.0000000  0.00   -0.0007894   -0.0016295   -0.0000000
 H   -8.9194857   -4.9377454    0.0000000  0.00   -0.0006636    0.0004869   -0.0000000
 H   -9.0080859   -2.5085138    0.0000000  0.00   -0.0016705   -0.0013306   -0.0000000
 H   -3.2360725   -9.3504741    0.0000000  0.00   -0.0003955   -0.0002641   -0.0000000
 H   -0.8654778   -9.2509816    0.0000000  0.00    0.0016720   -0.0023766   -0.0000000
