148
 Energy =   -4513.2372236150
 C    7.1143756   -6.0930918    0.0000000  0.00    0.0006424    0.0007169   -0.0000000
 C    5.6809926   -6.0534300    0.0000000  0.00    0.0003537    0.0011525   -0.0000000
 C    7.7805599   -7.3393711    0.0000000  0.00   -0.0001886   -0.0014055   -0.0000000
 C    4.9609467   -7.2635410    0.0000000  0.00    0.0007219   -0.0001407   -0.0000000
 C    7.0596795   -8.5075122    0.0000000  0.00    0.0006014    0.0005187   -0.0000000
 C    5.6672299   -8.4735238    0.0000000  0.00    0.0014960    0.0018540   -0.0000000
 C    7.1959877   -3.6615968    0.0000000  0.00   -0.0003151   -0.0002943   -0.0000000
 C    5.7525611   -3.6276821    0.0000000  0.00   -0.0002104    0.0009237   -0.0000000
 C    7.8379565   -4.9000996    0.0000000  0.00    0.0002869    0.0005638   -0.0000000
 C    4.9966300   -4.8060222    0.0000000  0.00    0.0014551    0.0014326   -0.0000000
 C    7.2920912   -1.2272657    0.0000000  0.00   -0.0016984    0.0010231   -0.0000000
 C    5.8528327   -1.2193857    0.0000000  0.00    0.0010283   -0.0015720   -0.0000000
 C    7.9318260   -2.4681873    0.0000000  0.00   -0.0001674    0.0007716   -0.0000000
 C    5.0825822   -2.3943748    0.0000000  0.00   -0.0014279    0.0010087   -0.0000000
 C    7.9759567    0.0000000    0.0000000  0.00   -0.0004198   -0.0000000   -0.0000000
 C    5.1727745    0.0000000    0.0000000  0.00   -0.0033500   -0.0000000   -0.0000000
 C    3.5610523   -4.7388740    0.0000000  0.00   -0.0006736   -0.0027169   -0.0000000
 C    2.8336836   -5.9457946    0.0000000  0.00    0.0024610    0.0007896   -0.0000000
 C    3.5154121   -7.1961176    0.0000000  0.00    0.0003253   -0.0020239   -0.0000000
 C    3.6442782   -2.3457974    0.0000000  0.00    0.0008785   -0.0003345   -0.0000000
 C    2.8642743   -3.4990861    0.0000000  0.00    0.0002154   -0.0009252   -0.0000000
 C    3.7823268    0.0000000    0.0000000  0.00    0.0023146   -0.0000000   -0.0000000
 C    2.9829239   -1.1218840    0.0000000  0.00    0.0009345   -0.0028146   -0.0000000
 C    1.4147356   -5.8562083    0.0000000  0.00   -0.0009474   -0.0006351   -0.0000000
 C    0.7130183   -7.0786840    0.0000000  0.00    0.0017422    0.0018056   -0.0000000
 C    2.7633170   -8.3681087    0.0000000  0.00   -0.0001328    0.0019310   -0.0000000
 C    1.4049889   -8.3010348    0.0000000  0.00   -0.0010804   -0.0016219   -0.0000000
 C    1.4203432   -3.3365542    0.0000000  0.00   -0.0001100   -0.0014748   -0.0000000
 C    0.7109850   -4.5770322    0.0000000  0.00    0.0021905    0.0002798   -0.0000000
 C    1.5822710   -0.7950404    0.0000000  0.00    0.0005090    0.0006757   -0.0000000
 C    0.7336871   -1.9979994    0.0000000  0.00    0.0007283   -0.0019025   -0.0000000
 H    8.8704786   -7.3511595    0.0000000  0.00    0.0015493   -0.0021289   -0.0000000
 H    7.5683530   -9.4715856    0.0000000  0.00    0.0008344    0.0004620   -0.0000000
 H    5.1420592   -9.4261617    0.0000000  0.00    0.0015406   -0.0006397   -0.0000000
 H    8.9249023   -4.9417584    0.0000000  0.00    0.0002567    0.0005926   -0.0000000
 H    9.0158087   -2.5203630    0.0000000  0.00   -0.0002599    0.0013446   -0.0000000
 H    9.0603246    0.0000000    0.0000000  0.00   -0.0005568   -0.0000000   -0.0000000
 H    3.2399017   -9.3402482    0.0000000  0.00   -0.0007120   -0.0016668   -0.0000000
 H    0.8676952   -9.2340494    0.0000000  0.00    0.0006040   -0.0004482   -0.0000000
 C   -7.1143756    6.0930918    0.0000000  0.00   -0.0006424   -0.0007169   -0.0000000
 C   -5.6809926    6.0534300    0.0000000  0.00   -0.0003537   -0.0011525   -0.0000000
 C   -7.7805599    7.3393711    0.0000000  0.00    0.0001886    0.0014055   -0.0000000
 C   -4.9609467    7.2635410    0.0000000  0.00   -0.0007219    0.0001407   -0.0000000
 C   -7.0596795    8.5075122    0.0000000  0.00   -0.0006014   -0.0005187   -0.0000000
 C   -5.6672299    8.4735238    0.0000000  0.00   -0.0014960   -0.0018540   -0.0000000
 C   -7.1959877    3.6615968    0.0000000  0.00    0.0003151    0.0002943   -0.0000000
 C   -5.7525611    3.6276821    0.0000000  0.00    0.0002104   -0.0009237   -0.0000000
 C   -7.8379565    4.9000996    0.0000000  0.00   -0.0002869   -0.0005638   -0.0000000
 C   -4.9966300    4.8060222    0.0000000  0.00   -0.0014551   -0.0014326   -0.0000000
 C   -7.2920912    1.2272657    0.0000000  0.00    0.0016984   -0.0010231   -0.0000000
 C   -5.8528327    1.2193857    0.0000000  0.00   -0.0010283    0.0015720   -0.0000000
 C   -7.9318260    2.4681873    0.0000000  0.00    0.0001674   -0.0007716   -0.0000000
 C   -5.0825822    2.3943748    0.0000000  0.00    0.0014279   -0.0010087   -0.0000000
 C   -7.9759567    0.0000000    0.0000000  0.00    0.0004198   -0.0000000   -0.0000000
 C   -5.1727745    0.0000000    0.0000000  0.00    0.0033500   -0.0000000   -0.0000000
 C   -3.5610523    4.7388740    0.0000000  0.00    0.0006736    0.0027169   -0.0000000
 C   -2.8336836    5.9457946    0.0000000  0.00   -0.0024610   -0.0007896   -0.0000000
 C   -3.5154121    7.1961176    0.0000000  0.00   -0.0003253    0.0020239   -0.0000000
 C   -3.6442782    2.3457974    0.0000000  0.00   -0.0008785    0.0003345   -0.0000000
 C   -2.8642743    3.4990861    0.0000000  0.00   -0.0002154    0.0009252   -0.0000000
 C   -3.7823268    0.0000000    0.0000000  0.00   -0.0023146   -0.0000000   -0.0000000
 C   -2.9829239    1.1218840    0.0000000  0.00   -0.0009345    0.0028146   -0.0000000
 C   -1.4147356    5.8562083    0.0000000  0.00    0.0009474    0.0006351   -0.0000000
 C   -0.7130183    7.0786840    0.0000000  0.00   -0.0017422   -0.0018056   -0.0000000
 C   -2.7633170    8.3681087    0.0000000  0.00    0.0001328   -0.0019310   -0.0000000
 C   -1.4049889    8.3010348    0.0000000  0.00    0.0010804    0.0016219   -0.0000000
 C   -1.4203432    3.3365542    0.0000000  0.00    0.0001100    0.0014748   -0.0000000
 C   -0.7109850    4.5770322    0.0000000  0.00   -0.0021905   -0.0002798   -0.0000000
 C   -1.5822710    0.7950404    0.0000000  0.00   -0.0005090   -0.0006757   -0.0000000
 C   -0.7336871    1.9979994    0.0000000  0.00   -0.0007283    0.0019025   -0.0000000
 H   -8.8704786    7.3511595    0.0000000  0.00   -0.0015493    0.0021289   -0.0000000
 H   -7.5683530    9.4715856    0.0000000  0.00   -0.0008344   -0.0004620   -0.0000000
 H   -5.1420592    9.4261617    0.0000000  0.00   -0.0015406    0.0006397   -0.0000000
 H   -8.9249023    4.9417584    0.0000000  0.00   -0.0002567   -0.0005926   -0.0000000
 H   -9.0158087    2.5203630    0.0000000  0.00    0.0002599   -0.0013446   -0.0000000
 H   -9.0603246    0.0000000    0.0000000  0.00    0.0005568   -0.0000000   -0.0000000
 H   -3.2399017    9.3402482    0.0000000  0.00    0.0007120    0.0016668   -0.0000000
 H   -0.8676952    9.2340494    0.0000000  0.00   -0.0006040    0.0004482   -0.0000000
 C    7.1143756    6.0930918    0.0000000  0.00    0.0006424   -0.0007169   -0.0000000
 C    5.6809926    6.0534300    0.0000000  0.00    0.0003537   -0.0011525   -0.0000000
 C    7.7805599    7.3393711    0.0000000  0.00   -0.0001886    0.0014055   -0.0000000
 C    4.9609467    7.2635410    0.0000000  0.00    0.0007219    0.0001407   -0.0000000
 C    7.0596795    8.5075122    0.0000000  0.00    0.0006014   -0.0005187   -0.0000000
 C    5.6672299    8.4735238    0.0000000  0.00    0.0014960   -0.0018540   -0.0000000
 C    7.1959877    3.6615968    0.0000000  0.00   -0.0003151    0.0002943   -0.0000000
 C    5.7525611    3.6276821    0.0000000  0.00   -0.0002104   -0.0009237   -0.0000000
 C    7.8379565    4.9000996    0.0000000  0.00    0.0002869   -0.0005638   -0.0000000
 C    4.9966300    4.8060222    0.0000000  0.00    0.0014551   -0.0014326   -0.0000000
 C    7.2920912    1.2272657    0.0000000  0.00   -0.0016984   -0.0010231   -0.0000000
 C    5.8528327    1.2193857    0.0000000  0.00    0.0010283    0.0015720   -0.0000000
 C    7.9318260    2.4681873    0.0000000  0.00   -0.0001674   -0.0007716   -0.0000000
 C    5.0825822    2.3943748    0.0000000  0.00   -0.0014279   -0.0010087   -0.0000000
 C    3.5610523    4.7388740    0.0000000  0.00   -0.0006736    0.0027169   -0.0000000
 C    2.8336836    5.9457946    0.0000000  0.00    0.0024610   -0.0007896   -0.0000000
 C    3.5154121    7.1961176    0.0000000  0.00    0.0003253    0.0020239   -0.0000000
 C    3.6442782    2.3457974    0.0000000  0.00    0.0008785    0.0003345   -0.0000000
 C    2.8642743    3.4990861    0.0000000  0.00    0.0002154    0.0009252   -0.0000000
 C    2.9829239    1.1218840    0.0000000  0.00    0.0009345    0.0028146   -0.0000000
 C    1.4147356    5.8562083    0.0000000  0.00   -0.0009474    0.0006351   -0.0000000
 C    0.7130183    7.0786840    0.0000000  0.00    0.0017422   -0.0018056   -0.0000000
 C    2.7633170    8.3681087    0.0000000  0.00   -0.0001328   -0.0019310   -0.0000000
 C    1.4049889    8.3010348    0.0000000  0.00   -0.0010804    0.0016219   -0.0000000
 C    1.4203432    3.3365542    0.0000000  0.00   -0.0001100    0.0014748   -0.0000000
 C    0.7109850    4.5770322    0.0000000  0.00    0.0021905   -0.0002798   -0.0000000
 C    1.5822710    0.7950404    0.0000000  0.00    0.0005090   -0.0006757   -0.0000000
 C    0.7336871    1.9979994    0.0000000  0.00    0.0007283    0.0019025   -0.0000000
 H    8.8704786    7.3511595    0.0000000  0.00    0.0015493    0.0021289   -0.0000000
 H    7.5683530    9.4715856    0.0000000  0.00    0.0008344   -0.0004620   -0.0000000
 H    5.1420592    9.4261617    0.0000000  0.00    0.0015406    0.0006397   -0.0000000
 H    8.9249023    4.9417584    0.0000000  0.00    0.0002567   -0.0005926   -0.0000000
 H    9.0158087    2.5203630    0.0000000  0.00   -0.0002599   -0.0013446   -0.0000000
 H    3.2399017    9.3402482    0.0000000  0.00   -0.0007120    0.0016668   -0.0000000
 H    0.8676952    9.2340494    0.0000000  0.00    0.0006040    0.0004482   -0.0000000
 C   -7.1143756   -6.0930918    0.0000000  0.00   -0.0006424    0.0007169   -0.0000000
 C   -5.6809926   -6.0534300    0.0000000  0.00   -0.0003537    0.0011525   -0.0000000
 C   -7.7805599   -7.3393711    0.0000000  0.00    0.0001886   -0.0014055   -0.0000000
 C   -4.9609467   -7.2635410    0.0000000  0.00   -0.0007219   -0.0001407   -0.0000000
 C   -7.0596795   -8.5075122    0.0000000  0.00   -0.0006014    0.0005187   -0.0000000
 C   -5.6672299   -8.4735238    0.0000000  0.00   -0.0014960    0.0018540   -0.0000000
 C   -7.1959877   -3.6615968    0.0000000  0.00    0.0003151   -0.0002943   -0.0000000
 C   -5.7525611   -3.6276821    0.0000000  0.00    0.0002104    0.0009237   -0.0000000
 C   -7.8379565   -4.9000996    0.0000000  0.00   -0.0002869    0.0005638   -0.0000000
 C   -4.9966300   -4.8060222    0.0000000  0.00   -0.0014551    0.0014326   -0.0000000
 C   -7.2920912   -1.2272657    0.0000000  0.00    0.0016984    0.0010231   -0.0000000
 C   -5.8528327   -1.2193857    0.0000000  0.00   -0.0010283   -0.0015720   -0.0000000
 C   -7.9318260   -2.4681873    0.0000000  0.00    0.0001674    0.0007716   -0.0000000
 C   -5.0825822   -2.3943748    0.0000000  0.00    0.0014279    0.0010087   -0.0000000
 C   -3.5610523   -4.7388740    0.0000000  0.00    0.0006736   -0.0027169   -0.0000000
 C   -2.8336836   -5.9457946    0.0000000  0.00   -0.0024610    0.0007896   -0.0000000
 C   -3.5154121   -7.1961176    0.0000000  0.00   -0.0003253   -0.0020239   -0.0000000
 C   -3.6442782   -2.3457974    0.0000000  0.00   -0.0008785   -0.0003345   -0.0000000
 C   -2.8642743   -3.4990861    0.0000000  0.00   -0.0002154   -0.0009252   -0.0000000
 C   -2.9829239   -1.1218840    0.0000000  0.00   -0.0009345   -0.0028146   -0.0000000
 C   -1.4147356   -5.8562083    0.0000000  0.00    0.0009474   -0.0006351   -0.0000000
 C   -0.7130183   -7.0786840    0.0000000  0.00   -0.0017422    0.0018056   -0.0000000
 C   -2.7633170   -8.3681087    0.0000000  0.00    0.0001328    0.0019310   -0.0000000
 C   -1.4049889   -8.3010348    0.0000000  0.00    0.0010804   -0.0016219   -0.0000000
 C   -1.4203432   -3.3365542    0.0000000  0.00    0.0001100   -0.0014748   -0.0000000
 C   -0.7109850   -4.5770322    0.0000000  0.00   -0.0021905    0.0002798   -0.0000000
 C   -1.5822710   -0.7950404    0.0000000  0.00   -0.0005090    0.0006757   -0.0000000
 C   -0.7336871   -1.9979994    0.0000000  0.00   -0.0007283   -0.0019025   -0.0000000
 H   -8.8704786   -7.3511595    0.0000000  0.00   -0.0015493   -0.0021289   -0.0000000
 H   -7.5683530   -9.4715856    0.0000000  0.00   -0.0008344    0.0004620   -0.0000000
 H   -5.1420592   -9.4261617    0.0000000  0.00   -0.0015406   -0.0006397   -0.0000000
 H   -8.9249023   -4.9417584    0.0000000  0.00   -0.0002567    0.0005926   -0.0000000
 H   -9.0158087   -2.5203630    0.0000000  0.00    0.0002599    0.0013446   -0.0000000
 H   -3.2399017   -9.3402482    0.0000000  0.00    0.0007120   -0.0016668   -0.0000000
 H   -0.8676952   -9.2340494    0.0000000  0.00   -0.0006040   -0.0004482   -0.0000000
