148
 Energy =   -4513.4185212960
 C    7.1206633   -6.1002288    0.0000000  0.00   -0.0003610    0.0000343   -0.0000000
 C    5.6873352   -6.0613249    0.0000000  0.00   -0.0004234    0.0006961   -0.0000000
 C    7.7822562   -7.3480227    0.0000000  0.00    0.0004066    0.0001304   -0.0000000
 C    4.9635699   -7.2726501    0.0000000  0.00   -0.0006712    0.0002834   -0.0000000
 C    7.0596220   -8.5188057    0.0000000  0.00    0.0004153    0.0003600   -0.0000000
 C    5.6666238   -8.4849542    0.0000000  0.00   -0.0004072   -0.0002184   -0.0000000
 C    7.1985723   -3.6687249    0.0000000  0.00    0.0005566    0.0003573   -0.0000000
 C    5.7565746   -3.6331741    0.0000000  0.00    0.0013935    0.0005167   -0.0000000
 C    7.8424193   -4.9012738    0.0000000  0.00    0.0003166    0.0010414   -0.0000000
 C    5.0005948   -4.8136160    0.0000000  0.00   -0.0009215   -0.0009207   -0.0000000
 C    7.2855670   -1.2322263    0.0000000  0.00    0.0000205    0.0003259   -0.0000000
 C    5.8476293   -1.2225195    0.0000000  0.00    0.0002530   -0.0000229   -0.0000000
 C    7.9322546   -2.4634752    0.0000000  0.00    0.0001253    0.0008215   -0.0000000
 C    5.0834095   -2.3965149    0.0000000  0.00   -0.0003007    0.0003951   -0.0000000
 C    7.9709379    0.0000000    0.0000000  0.00    0.0001304   -0.0000000   -0.0000000
 C    5.1703084    0.0000000    0.0000000  0.00    0.0003872   -0.0000000   -0.0000000
 C    3.5639909   -4.7476293    0.0000000  0.00    0.0010804    0.0004110   -0.0000000
 C    2.8377644   -5.9499006    0.0000000  0.00   -0.0008031   -0.0007751   -0.0000000
 C    3.5185645   -7.2027667    0.0000000  0.00   -0.0001994    0.0004401   -0.0000000
 C    3.6450847   -2.3500730    0.0000000  0.00    0.0003631   -0.0000688   -0.0000000
 C    2.8654181   -3.5048184    0.0000000  0.00   -0.0008786   -0.0003417   -0.0000000
 C    3.7811151    0.0000000    0.0000000  0.00   -0.0010108   -0.0000000   -0.0000000
 C    2.9823034   -1.1278907    0.0000000  0.00   -0.0007901    0.0004202   -0.0000000
 C    1.4158373   -5.8607764    0.0000000  0.00   -0.0006290   -0.0002745   -0.0000000
 C    0.7123959   -7.0853082    0.0000000  0.00    0.0004132   -0.0000500   -0.0000000
 C    2.7626179   -8.3723943    0.0000000  0.00   -0.0001156   -0.0017975   -0.0000000
 C    1.4040280   -8.3085802    0.0000000  0.00   -0.0000414    0.0006506   -0.0000000
 C    1.4244743   -3.3425713    0.0000000  0.00    0.0004053    0.0001999   -0.0000000
 C    0.7121640   -4.5867754    0.0000000  0.00   -0.0002768   -0.0002784   -0.0000000
 C    1.5820031   -0.8106212    0.0000000  0.00    0.0001141   -0.0003430   -0.0000000
 C    0.7386983   -2.0006107    0.0000000  0.00   -0.0007535   -0.0001274   -0.0000000
 H    8.8662014   -7.3661257    0.0000000  0.00   -0.0002213    0.0010416   -0.0000000
 H    7.5699492   -9.4749196    0.0000000  0.00    0.0003883   -0.0006143   -0.0000000
 H    5.1371001   -9.4264406    0.0000000  0.00    0.0007141    0.0008440   -0.0000000
 H    8.9266229   -4.9358188    0.0000000  0.00    0.0003287   -0.0005255   -0.0000000
 H    9.0160092   -2.5075046    0.0000000  0.00   -0.0000240   -0.0004340   -0.0000000
 H    9.0556855    0.0000000    0.0000000  0.00   -0.0003755   -0.0000000   -0.0000000
 H    3.2379660   -9.3415794    0.0000000  0.00   -0.0000708   -0.0008366   -0.0000000
 H    0.8663197   -9.2409388    0.0000000  0.00    0.0000415    0.0008687   -0.0000000
 C   -7.1206633    6.1002288    0.0000000  0.00    0.0003610   -0.0000343   -0.0000000
 C   -5.6873352    6.0613249    0.0000000  0.00    0.0004234   -0.0006961   -0.0000000
 C   -7.7822562    7.3480227    0.0000000  0.00   -0.0004066   -0.0001304   -0.0000000
 C   -4.9635699    7.2726501    0.0000000  0.00    0.0006712   -0.0002834   -0.0000000
 C   -7.0596220    8.5188057    0.0000000  0.00   -0.0004153   -0.0003600   -0.0000000
 C   -5.6666238    8.4849542    0.0000000  0.00    0.0004072    0.0002184   -0.0000000
 C   -7.1985723    3.6687249    0.0000000  0.00   -0.0005566   -0.0003573   -0.0000000
 C   -5.7565746    3.6331741    0.0000000  0.00   -0.0013935   -0.0005167   -0.0000000
 C   -7.8424193    4.9012738    0.0000000  0.00   -0.0003166   -0.0010414   -0.0000000
 C   -5.0005948    4.8136160    0.0000000  0.00    0.0009215    0.0009207   -0.0000000
 C   -7.2855670    1.2322263    0.0000000  0.00   -0.0000205   -0.0003259   -0.0000000
 C   -5.8476293    1.2225195    0.0000000  0.00   -0.0002530    0.0000229   -0.0000000
 C   -7.9322546    2.4634752    0.0000000  0.00   -0.0001253   -0.0008215   -0.0000000
 C   -5.0834095    2.3965149    0.0000000  0.00    0.0003007   -0.0003951   -0.0000000
 C   -7.9709379    0.0000000    0.0000000  0.00   -0.0001304   -0.0000000   -0.0000000
 C   -5.1703084    0.0000000    0.0000000  0.00   -0.0003872   -0.0000000   -0.0000000
 C   -3.5639909    4.7476293    0.0000000  0.00   -0.0010804   -0.0004110   -0.0000000
 C   -2.8377644    5.9499006    0.0000000  0.00    0.0008031    0.0007751   -0.0000000
 C   -3.5185645    7.2027667    0.0000000  0.00    0.0001994   -0.0004401   -0.0000000
 C   -3.6450847    2.3500730    0.0000000  0.00   -0.0003631    0.0000688   -0.0000000
 C   -2.8654181    3.5048184    0.0000000  0.00    0.0008786    0.0003417   -0.0000000
 C   -3.7811151    0.0000000    0.0000000  0.00    0.0010108   -0.0000000   -0.0000000
 C   -2.9823034    1.1278907    0.0000000  0.00    0.0007901   -0.0004202   -0.0000000
 C   -1.4158373    5.8607764    0.0000000  0.00    0.0006290    0.0002745   -0.0000000
 C   -0.7123959    7.0853082    0.0000000  0.00   -0.0004132    0.0000500   -0.0000000
 C   -2.7626179    8.3723943    0.0000000  0.00    0.0001156    0.0017975   -0.0000000
 C   -1.4040280    8.3085802    0.0000000  0.00    0.0000414   -0.0006506   -0.0000000
 C   -1.4244743    3.3425713    0.0000000  0.00   -0.0004053   -0.0001999   -0.0000000
 C   -0.7121640    4.5867754    0.0000000  0.00    0.0002768    0.0002784   -0.0000000
 C   -1.5820031    0.8106212    0.0000000  0.00   -0.0001141    0.0003430   -0.0000000
 C   -0.7386983    2.0006107    0.0000000  0.00    0.0007535    0.0001274   -0.0000000
 H   -8.8662014    7.3661257    0.0000000  0.00    0.0002213   -0.0010416   -0.0000000
 H   -7.5699492    9.4749196    0.0000000  0.00   -0.0003883    0.0006143   -0.0000000
 H   -5.1371001    9.4264406    0.0000000  0.00   -0.0007141   -0.0008440   -0.0000000
 H   -8.9266229    4.9358188    0.0000000  0.00   -0.0003287    0.0005255   -0.0000000
 H   -9.0160092    2.5075046    0.0000000  0.00    0.0000240    0.0004340   -0.0000000
 H   -9.0556855    0.0000000    0.0000000  0.00    0.0003755   -0.0000000   -0.0000000
 H   -3.2379660    9.3415794    0.0000000  0.00    0.0000708    0.0008366   -0.0000000
 H   -0.8663197    9.2409388    0.0000000  0.00   -0.0000415   -0.0008687   -0.0000000
 C    7.1206633    6.1002288    0.0000000  0.00   -0.0003610   -0.0000343   -0.0000000
 C    5.6873352    6.0613249    0.0000000  0.00   -0.0004234   -0.0006961   -0.0000000
 C    7.7822562    7.3480227    0.0000000  0.00    0.0004066   -0.0001304   -0.0000000
 C    4.9635699    7.2726501    0.0000000  0.00   -0.0006712   -0.0002834   -0.0000000
 C    7.0596220    8.5188057    0.0000000  0.00    0.0004153   -0.0003600   -0.0000000
 C    5.6666238    8.4849542    0.0000000  0.00   -0.0004072    0.0002184   -0.0000000
 C    7.1985723    3.6687249    0.0000000  0.00    0.0005566   -0.0003573   -0.0000000
 C    5.7565746    3.6331741    0.0000000  0.00    0.0013935   -0.0005167   -0.0000000
 C    7.8424193    4.9012738    0.0000000  0.00    0.0003166   -0.0010414   -0.0000000
 C    5.0005948    4.8136160    0.0000000  0.00   -0.0009215    0.0009207   -0.0000000
 C    7.2855670    1.2322263    0.0000000  0.00    0.0000205   -0.0003259   -0.0000000
 C    5.8476293    1.2225195    0.0000000  0.00    0.0002530    0.0000229   -0.0000000
 C    7.9322546    2.4634752    0.0000000  0.00    0.0001253   -0.0008215   -0.0000000
 C    5.0834095    2.3965149    0.0000000  0.00   -0.0003007   -0.0003951   -0.0000000
 C    3.5639909    4.7476293    0.0000000  0.00    0.0010804   -0.0004110   -0.0000000
 C    2.8377644    5.9499006    0.0000000  0.00   -0.0008031    0.0007751   -0.0000000
 C    3.5185645    7.2027667    0.0000000  0.00   -0.0001994   -0.0004401   -0.0000000
 C    3.6450847    2.3500730    0.0000000  0.00    0.0003631    0.0000688   -0.0000000
 C    2.8654181    3.5048184    0.0000000  0.00   -0.0008786    0.0003417   -0.0000000
 C    2.9823034    1.1278907    0.0000000  0.00   -0.0007901   -0.0004202   -0.0000000
 C    1.4158373    5.8607764    0.0000000  0.00   -0.0006290    0.0002745   -0.0000000
 C    0.7123959    7.0853082    0.0000000  0.00    0.0004132    0.0000500   -0.0000000
 C    2.7626179    8.3723943    0.0000000  0.00   -0.0001156    0.0017975   -0.0000000
 C    1.4040280    8.3085802    0.0000000  0.00   -0.0000414   -0.0006506   -0.0000000
 C    1.4244743    3.3425713    0.0000000  0.00    0.0004053   -0.0001999   -0.0000000
 C    0.7121640    4.5867754    0.0000000  0.00   -0.0002768    0.0002784   -0.0000000
 C    1.5820031    0.8106212    0.0000000  0.00    0.0001141    0.0003430   -0.0000000
 C    0.7386983    2.0006107    0.0000000  0.00   -0.0007535    0.0001274   -0.0000000
 H    8.8662014    7.3661257    0.0000000  0.00   -0.0002213   -0.0010416   -0.0000000
 H    7.5699492    9.4749196    0.0000000  0.00    0.0003883    0.0006143   -0.0000000
 H    5.1371001    9.4264406    0.0000000  0.00    0.0007141   -0.0008440   -0.0000000
 H    8.9266229    4.9358188    0.0000000  0.00    0.0003287    0.0005255   -0.0000000
 H    9.0160092    2.5075046    0.0000000  0.00   -0.0000240    0.0004340   -0.0000000
 H    3.2379660    9.3415794    0.0000000  0.00   -0.0000708    0.0008366   -0.0000000
 H    0.8663197    9.2409388    0.0000000  0.00    0.0000415   -0.0008687   -0.0000000
 C   -7.1206633   -6.1002288    0.0000000  0.00    0.0003610    0.0000343   -0.0000000
 C   -5.6873352   -6.0613249    0.0000000  0.00    0.0004234    0.0006961   -0.0000000
 C   -7.7822562   -7.3480227    0.0000000  0.00   -0.0004066    0.0001304   -0.0000000
 C   -4.9635699   -7.2726501    0.0000000  0.00    0.0006712    0.0002834   -0.0000000
 C   -7.0596220   -8.5188057    0.0000000  0.00   -0.0004153    0.0003600   -0.0000000
 C   -5.6666238   -8.4849542    0.0000000  0.00    0.0004072   -0.0002184   -0.0000000
 C   -7.1985723   -3.6687249    0.0000000  0.00   -0.0005566    0.0003573   -0.0000000
 C   -5.7565746   -3.6331741    0.0000000  0.00   -0.0013935    0.0005167   -0.0000000
 C   -7.8424193   -4.9012738    0.0000000  0.00   -0.0003166    0.0010414   -0.0000000
 C   -5.0005948   -4.8136160    0.0000000  0.00    0.0009215   -0.0009207   -0.0000000
 C   -7.2855670   -1.2322263    0.0000000  0.00   -0.0000205    0.0003259   -0.0000000
 C   -5.8476293   -1.2225195    0.0000000  0.00   -0.0002530   -0.0000229   -0.0000000
 C   -7.9322546   -2.4634752    0.0000000  0.00   -0.0001253    0.0008215   -0.0000000
 C   -5.0834095   -2.3965149    0.0000000  0.00    0.0003007    0.0003951   -0.0000000
 C   -3.5639909   -4.7476293    0.0000000  0.00   -0.0010804    0.0004110   -0.0000000
 C   -2.8377644   -5.9499006    0.0000000  0.00    0.0008031   -0.0007751   -0.0000000
 C   -3.5185645   -7.2027667    0.0000000  0.00    0.0001994    0.0004401   -0.0000000
 C   -3.6450847   -2.3500730    0.0000000  0.00   -0.0003631   -0.0000688   -0.0000000
 C   -2.8654181   -3.5048184    0.0000000  0.00    0.0008786   -0.0003417   -0.0000000
 C   -2.9823034   -1.1278907    0.0000000  0.00    0.0007901    0.0004202   -0.0000000
 C   -1.4158373   -5.8607764    0.0000000  0.00    0.0006290   -0.0002745   -0.0000000
 C   -0.7123959   -7.0853082    0.0000000  0.00   -0.0004132   -0.0000500   -0.0000000
 C   -2.7626179   -8.3723943    0.0000000  0.00    0.0001156   -0.0017975   -0.0000000
 C   -1.4040280   -8.3085802    0.0000000  0.00    0.0000414    0.0006506   -0.0000000
 C   -1.4244743   -3.3425713    0.0000000  0.00   -0.0004053    0.0001999   -0.0000000
 C   -0.7121640   -4.5867754    0.0000000  0.00    0.0002768   -0.0002784   -0.0000000
 C   -1.5820031   -0.8106212    0.0000000  0.00   -0.0001141   -0.0003430   -0.0000000
 C   -0.7386983   -2.0006107    0.0000000  0.00    0.0007535   -0.0001274   -0.0000000
 H   -8.8662014   -7.3661257    0.0000000  0.00    0.0002213    0.0010416   -0.0000000
 H   -7.5699492   -9.4749196    0.0000000  0.00   -0.0003883   -0.0006143   -0.0000000
 H   -5.1371001   -9.4264406    0.0000000  0.00   -0.0007141    0.0008440   -0.0000000
 H   -8.9266229   -4.9358188    0.0000000  0.00   -0.0003287   -0.0005255   -0.0000000
 H   -9.0160092   -2.5075046    0.0000000  0.00    0.0000240   -0.0004340   -0.0000000
 H   -3.2379660   -9.3415794    0.0000000  0.00    0.0000708   -0.0008366   -0.0000000
 H   -0.8663197   -9.2409388    0.0000000  0.00   -0.0000415    0.0008687   -0.0000000
