148
 Energy =   -4513.4235569100
 C    7.1184352   -6.0996353    0.0000000  0.00    0.0001828    0.0010860   -0.0000000
 C    5.6851673   -6.0609157    0.0000000  0.00   -0.0007922    0.0000592   -0.0000000
 C    7.7786035   -7.3480646    0.0000000  0.00   -0.0000100    0.0002681   -0.0000000
 C    4.9628103   -7.2693552    0.0000000  0.00   -0.0006947    0.0004874   -0.0000000
 C    7.0557658   -8.5186500    0.0000000  0.00   -0.0002905    0.0000336   -0.0000000
 C    5.6624986   -8.4831744    0.0000000  0.00   -0.0009787   -0.0004324   -0.0000000
 C    7.2033653   -3.6645028    0.0000000  0.00   -0.0002972    0.0000835   -0.0000000
 C    5.7582496   -3.6319485    0.0000000  0.00   -0.0008172   -0.0003081   -0.0000000
 C    7.8411203   -4.9030312    0.0000000  0.00   -0.0004560   -0.0000797   -0.0000000
 C    5.0020571   -4.8103533    0.0000000  0.00   -0.0004304    0.0004646   -0.0000000
 C    7.2984088   -1.2274847    0.0000000  0.00   -0.0004148    0.0005180   -0.0000000
 C    5.8583549   -1.2203535    0.0000000  0.00   -0.0010293    0.0003849   -0.0000000
 C    7.9356369   -2.4682718    0.0000000  0.00   -0.0010248   -0.0005059   -0.0000000
 C    5.0873379   -2.3970930    0.0000000  0.00   -0.0003218   -0.0004355   -0.0000000
 C    7.9782231    0.0000000    0.0000000  0.00    0.0000086   -0.0000000   -0.0000000
 C    5.1779190    0.0000000    0.0000000  0.00    0.0001523   -0.0000000   -0.0000000
 C    3.5656499   -4.7400905    0.0000000  0.00    0.0004496    0.0004429   -0.0000000
 C    2.8366263   -5.9469747    0.0000000  0.00   -0.0003919    0.0002157   -0.0000000
 C    3.5166685   -7.1976654    0.0000000  0.00   -0.0005064    0.0005148   -0.0000000
 C    3.6491039   -2.3469755    0.0000000  0.00    0.0004512    0.0004378   -0.0000000
 C    2.8681848   -3.5007923    0.0000000  0.00   -0.0006777   -0.0008402   -0.0000000
 C    3.7861294    0.0000000    0.0000000  0.00   -0.0001359   -0.0000000   -0.0000000
 C    2.9868745   -1.1224158    0.0000000  0.00   -0.0005261   -0.0001476   -0.0000000
 C    1.4166646   -5.8560537    0.0000000  0.00    0.0002479   -0.0000902   -0.0000000
 C    0.7133335   -7.0774566    0.0000000  0.00   -0.0000345    0.0000110   -0.0000000
 C    2.7611974   -8.3671848    0.0000000  0.00    0.0000240    0.0005615   -0.0000000
 C    1.4028881   -8.3005094    0.0000000  0.00   -0.0002990   -0.0001079   -0.0000000
 C    1.4223236   -3.3373831    0.0000000  0.00   -0.0003112    0.0003958   -0.0000000
 C    0.7119411   -4.5765760    0.0000000  0.00   -0.0002098    0.0001583   -0.0000000
 C    1.5852252   -0.7947013    0.0000000  0.00   -0.0001638   -0.0002742   -0.0000000
 C    0.7339759   -1.9982607    0.0000000  0.00   -0.0003088   -0.0001332   -0.0000000
 H    8.8625925   -7.3663047    0.0000000  0.00   -0.0006105   -0.0004351   -0.0000000
 H    7.5656526   -9.4750342    0.0000000  0.00   -0.0006889    0.0002521   -0.0000000
 H    5.1318410   -9.4238999    0.0000000  0.00   -0.0000221    0.0004363   -0.0000000
 H    8.9253225   -4.9406682    0.0000000  0.00   -0.0003360   -0.0001065   -0.0000000
 H    9.0191541   -2.5164512    0.0000000  0.00   -0.0000070    0.0001289   -0.0000000
 H    9.0627661    0.0000000    0.0000000  0.00   -0.0005035   -0.0000000   -0.0000000
 H    3.2354785   -9.3367080    0.0000000  0.00    0.0004578    0.0000618   -0.0000000
 H    0.8641643   -9.2322450    0.0000000  0.00    0.0000414    0.0000925   -0.0000000
 C   -7.1184352    6.0996353    0.0000000  0.00   -0.0001828   -0.0010860   -0.0000000
 C   -5.6851673    6.0609157    0.0000000  0.00    0.0007922   -0.0000592   -0.0000000
 C   -7.7786035    7.3480646    0.0000000  0.00    0.0000100   -0.0002681   -0.0000000
 C   -4.9628103    7.2693552    0.0000000  0.00    0.0006947   -0.0004874   -0.0000000
 C   -7.0557658    8.5186500    0.0000000  0.00    0.0002905   -0.0000336   -0.0000000
 C   -5.6624986    8.4831744    0.0000000  0.00    0.0009787    0.0004324   -0.0000000
 C   -7.2033653    3.6645028    0.0000000  0.00    0.0002972   -0.0000835   -0.0000000
 C   -5.7582496    3.6319485    0.0000000  0.00    0.0008172    0.0003081   -0.0000000
 C   -7.8411203    4.9030312    0.0000000  0.00    0.0004560    0.0000797   -0.0000000
 C   -5.0020571    4.8103533    0.0000000  0.00    0.0004304   -0.0004646   -0.0000000
 C   -7.2984088    1.2274847    0.0000000  0.00    0.0004148   -0.0005180   -0.0000000
 C   -5.8583549    1.2203535    0.0000000  0.00    0.0010293   -0.0003849   -0.0000000
 C   -7.9356369    2.4682718    0.0000000  0.00    0.0010248    0.0005059   -0.0000000
 C   -5.0873379    2.3970930    0.0000000  0.00    0.0003218    0.0004355   -0.0000000
 C   -7.9782231    0.0000000    0.0000000  0.00   -0.0000086   -0.0000000   -0.0000000
 C   -5.1779190    0.0000000    0.0000000  0.00   -0.0001523   -0.0000000   -0.0000000
 C   -3.5656499    4.7400905    0.0000000  0.00   -0.0004496   -0.0004429   -0.0000000
 C   -2.8366263    5.9469747    0.0000000  0.00    0.0003919   -0.0002157   -0.0000000
 C   -3.5166685    7.1976654    0.0000000  0.00    0.0005064   -0.0005148   -0.0000000
 C   -3.6491039    2.3469755    0.0000000  0.00   -0.0004512   -0.0004378   -0.0000000
 C   -2.8681848    3.5007923    0.0000000  0.00    0.0006777    0.0008402   -0.0000000
 C   -3.7861294    0.0000000    0.0000000  0.00    0.0001359   -0.0000000   -0.0000000
 C   -2.9868745    1.1224158    0.0000000  0.00    0.0005261    0.0001476   -0.0000000
 C   -1.4166646    5.8560537    0.0000000  0.00   -0.0002479    0.0000902   -0.0000000
 C   -0.7133335    7.0774566    0.0000000  0.00    0.0000345   -0.0000110   -0.0000000
 C   -2.7611974    8.3671848    0.0000000  0.00   -0.0000240   -0.0005615   -0.0000000
 C   -1.4028881    8.3005094    0.0000000  0.00    0.0002990    0.0001079   -0.0000000
 C   -1.4223236    3.3373831    0.0000000  0.00    0.0003112   -0.0003958   -0.0000000
 C   -0.7119411    4.5765760    0.0000000  0.00    0.0002098   -0.0001583   -0.0000000
 C   -1.5852252    0.7947013    0.0000000  0.00    0.0001638    0.0002742   -0.0000000
 C   -0.7339759    1.9982607    0.0000000  0.00    0.0003088    0.0001332   -0.0000000
 H   -8.8625925    7.3663047    0.0000000  0.00    0.0006105    0.0004351   -0.0000000
 H   -7.5656526    9.4750342    0.0000000  0.00    0.0006889   -0.0002521   -0.0000000
 H   -5.1318410    9.4238999    0.0000000  0.00    0.0000221   -0.0004363   -0.0000000
 H   -8.9253225    4.9406682    0.0000000  0.00    0.0003360    0.0001065   -0.0000000
 H   -9.0191541    2.5164512    0.0000000  0.00    0.0000070   -0.0001289   -0.0000000
 H   -9.0627661    0.0000000    0.0000000  0.00    0.0005035   -0.0000000   -0.0000000
 H   -3.2354785    9.3367080    0.0000000  0.00   -0.0004578   -0.0000618   -0.0000000
 H   -0.8641643    9.2322450    0.0000000  0.00   -0.0000414   -0.0000925   -0.0000000
 C    7.1184352    6.0996353    0.0000000  0.00    0.0001828   -0.0010860   -0.0000000
 C    5.6851673    6.0609157    0.0000000  0.00   -0.0007922   -0.0000592   -0.0000000
 C    7.7786035    7.3480646    0.0000000  0.00   -0.0000100   -0.0002681   -0.0000000
 C    4.9628103    7.2693552    0.0000000  0.00   -0.0006947   -0.0004874   -0.0000000
 C    7.0557658    8.5186500    0.0000000  0.00   -0.0002905   -0.0000336   -0.0000000
 C    5.6624986    8.4831744    0.0000000  0.00   -0.0009787    0.0004324   -0.0000000
 C    7.2033653    3.6645028    0.0000000  0.00   -0.0002972   -0.0000835   -0.0000000
 C    5.7582496    3.6319485    0.0000000  0.00   -0.0008172    0.0003081   -0.0000000
 C    7.8411203    4.9030312    0.0000000  0.00   -0.0004560    0.0000797   -0.0000000
 C    5.0020571    4.8103533    0.0000000  0.00   -0.0004304   -0.0004646   -0.0000000
 C    7.2984088    1.2274847    0.0000000  0.00   -0.0004148   -0.0005180   -0.0000000
 C    5.8583549    1.2203535    0.0000000  0.00   -0.0010293   -0.0003849   -0.0000000
 C    7.9356369    2.4682718    0.0000000  0.00   -0.0010248    0.0005059   -0.0000000
 C    5.0873379    2.3970930    0.0000000  0.00   -0.0003218    0.0004355   -0.0000000
 C    3.5656499    4.7400905    0.0000000  0.00    0.0004496   -0.0004429   -0.0000000
 C    2.8366263    5.9469747    0.0000000  0.00   -0.0003919   -0.0002157   -0.0000000
 C    3.5166685    7.1976654    0.0000000  0.00   -0.0005064   -0.0005148   -0.0000000
 C    3.6491039    2.3469755    0.0000000  0.00    0.0004512   -0.0004378   -0.0000000
 C    2.8681848    3.5007923    0.0000000  0.00   -0.0006777    0.0008402   -0.0000000
 C    2.9868745    1.1224158    0.0000000  0.00   -0.0005261    0.0001476   -0.0000000
 C    1.4166646    5.8560537    0.0000000  0.00    0.0002479    0.0000902   -0.0000000
 C    0.7133335    7.0774566    0.0000000  0.00   -0.0000345   -0.0000110   -0.0000000
 C    2.7611974    8.3671848    0.0000000  0.00    0.0000240   -0.0005615   -0.0000000
 C    1.4028881    8.3005094    0.0000000  0.00   -0.0002990    0.0001079   -0.0000000
 C    1.4223236    3.3373831    0.0000000  0.00   -0.0003112   -0.0003958   -0.0000000
 C    0.7119411    4.5765760    0.0000000  0.00   -0.0002098   -0.0001583   -0.0000000
 C    1.5852252    0.7947013    0.0000000  0.00   -0.0001638    0.0002742   -0.0000000
 C    0.7339759    1.9982607    0.0000000  0.00   -0.0003088    0.0001332   -0.0000000
 H    8.8625925    7.3663047    0.0000000  0.00   -0.0006105    0.0004351   -0.0000000
 H    7.5656526    9.4750342    0.0000000  0.00   -0.0006889   -0.0002521   -0.0000000
 H    5.1318410    9.4238999    0.0000000  0.00   -0.0000221   -0.0004363   -0.0000000
 H    8.9253225    4.9406682    0.0000000  0.00   -0.0003360    0.0001065   -0.0000000
 H    9.0191541    2.5164512    0.0000000  0.00   -0.0000070   -0.0001289   -0.0000000
 H    3.2354785    9.3367080    0.0000000  0.00    0.0004578   -0.0000618   -0.0000000
 H    0.8641643    9.2322450    0.0000000  0.00    0.0000414   -0.0000925   -0.0000000
 C   -7.1184352   -6.0996353    0.0000000  0.00   -0.0001828    0.0010860   -0.0000000
 C   -5.6851673   -6.0609157    0.0000000  0.00    0.0007922    0.0000592   -0.0000000
 C   -7.7786035   -7.3480646    0.0000000  0.00    0.0000100    0.0002681   -0.0000000
 C   -4.9628103   -7.2693552    0.0000000  0.00    0.0006947    0.0004874   -0.0000000
 C   -7.0557658   -8.5186500    0.0000000  0.00    0.0002905    0.0000336   -0.0000000
 C   -5.6624986   -8.4831744    0.0000000  0.00    0.0009787   -0.0004324   -0.0000000
 C   -7.2033653   -3.6645028    0.0000000  0.00    0.0002972    0.0000835   -0.0000000
 C   -5.7582496   -3.6319485    0.0000000  0.00    0.0008172   -0.0003081   -0.0000000
 C   -7.8411203   -4.9030312    0.0000000  0.00    0.0004560   -0.0000797   -0.0000000
 C   -5.0020571   -4.8103533    0.0000000  0.00    0.0004304    0.0004646   -0.0000000
 C   -7.2984088   -1.2274847    0.0000000  0.00    0.0004148    0.0005180   -0.0000000
 C   -5.8583549   -1.2203535    0.0000000  0.00    0.0010293    0.0003849   -0.0000000
 C   -7.9356369   -2.4682718    0.0000000  0.00    0.0010248   -0.0005059   -0.0000000
 C   -5.0873379   -2.3970930    0.0000000  0.00    0.0003218   -0.0004355   -0.0000000
 C   -3.5656499   -4.7400905    0.0000000  0.00   -0.0004496    0.0004429   -0.0000000
 C   -2.8366263   -5.9469747    0.0000000  0.00    0.0003919    0.0002157   -0.0000000
 C   -3.5166685   -7.1976654    0.0000000  0.00    0.0005064    0.0005148   -0.0000000
 C   -3.6491039   -2.3469755    0.0000000  0.00   -0.0004512    0.0004378   -0.0000000
 C   -2.8681848   -3.5007923    0.0000000  0.00    0.0006777   -0.0008402   -0.0000000
 C   -2.9868745   -1.1224158    0.0000000  0.00    0.0005261   -0.0001476   -0.0000000
 C   -1.4166646   -5.8560537    0.0000000  0.00   -0.0002479   -0.0000902   -0.0000000
 C   -0.7133335   -7.0774566    0.0000000  0.00    0.0000345    0.0000110   -0.0000000
 C   -2.7611974   -8.3671848    0.0000000  0.00   -0.0000240    0.0005615   -0.0000000
 C   -1.4028881   -8.3005094    0.0000000  0.00    0.0002990   -0.0001079   -0.0000000
 C   -1.4223236   -3.3373831    0.0000000  0.00    0.0003112    0.0003958   -0.0000000
 C   -0.7119411   -4.5765760    0.0000000  0.00    0.0002098    0.0001583   -0.0000000
 C   -1.5852252   -0.7947013    0.0000000  0.00    0.0001638   -0.0002742   -0.0000000
 C   -0.7339759   -1.9982607    0.0000000  0.00    0.0003088   -0.0001332   -0.0000000
 H   -8.8625925   -7.3663047    0.0000000  0.00    0.0006105   -0.0004351   -0.0000000
 H   -7.5656526   -9.4750342    0.0000000  0.00    0.0006889    0.0002521   -0.0000000
 H   -5.1318410   -9.4238999    0.0000000  0.00    0.0000221    0.0004363   -0.0000000
 H   -8.9253225   -4.9406682    0.0000000  0.00    0.0003360   -0.0001065   -0.0000000
 H   -9.0191541   -2.5164512    0.0000000  0.00    0.0000070    0.0001289   -0.0000000
 H   -3.2354785   -9.3367080    0.0000000  0.00   -0.0004578    0.0000618   -0.0000000
 H   -0.8641643   -9.2322450    0.0000000  0.00   -0.0000414    0.0000925   -0.0000000
