148
 Energy =   -4513.2491565220
 C    7.1124957   -6.0986281    0.0000000  0.00    0.0001963    0.0002080   -0.0000000
 C    5.6799513   -6.0578593    0.0000000  0.00   -0.0002214   -0.0004149   -0.0000000
 C    7.7759804   -7.3469039    0.0000000  0.00    0.0005941    0.0000169   -0.0000000
 C    4.9558366   -7.2686872    0.0000000  0.00   -0.0000924    0.0007665   -0.0000000
 C    7.0528325   -8.5154945    0.0000000  0.00   -0.0002391   -0.0005587   -0.0000000
 C    5.6599226   -8.4808594    0.0000000  0.00   -0.0006040    0.0000275   -0.0000000
 C    7.1916001   -3.6682052    0.0000000  0.00    0.0005267   -0.0002712   -0.0000000
 C    5.7530968   -3.6320845    0.0000000  0.00    0.0007548    0.0016820   -0.0000000
 C    7.8351085   -4.9027183    0.0000000  0.00    0.0002081    0.0005860   -0.0000000
 C    4.9959989   -4.8116410    0.0000000  0.00   -0.0008054   -0.0013003   -0.0000000
 C    7.2861959   -1.2335176    0.0000000  0.00   -0.0006333    0.0003483   -0.0000000
 C    5.8470772   -1.2232500    0.0000000  0.00   -0.0003954    0.0011372   -0.0000000
 C    7.9289235   -2.4647317    0.0000000  0.00    0.0003090   -0.0006441   -0.0000000
 C    5.0811147   -2.3953038    0.0000000  0.00    0.0012576   -0.0009952   -0.0000000
 C    7.9737539    0.0000000    0.0000000  0.00    0.0000741   -0.0000000   -0.0000000
 C    5.1680734    0.0000000    0.0000000  0.00    0.0017744   -0.0000000   -0.0000000
 C    3.5598432   -4.7458810    0.0000000  0.00    0.0007497    0.0019696   -0.0000000
 C    2.8335479   -5.9486316    0.0000000  0.00   -0.0002287   -0.0016253   -0.0000000
 C    3.5129330   -7.2026872    0.0000000  0.00   -0.0002497    0.0001035   -0.0000000
 C    3.6427168   -2.3482658    0.0000000  0.00   -0.0009878    0.0022541   -0.0000000
 C    2.8619055   -3.5016060    0.0000000  0.00    0.0011457   -0.0021499   -0.0000000
 C    3.7818186    0.0000000    0.0000000  0.00   -0.0025987   -0.0000000   -0.0000000
 C    2.9814569   -1.1258503    0.0000000  0.00    0.0014622   -0.0013394   -0.0000000
 C    1.4133869   -5.8589014    0.0000000  0.00    0.0001494   -0.0003539   -0.0000000
 C    0.7108173   -7.0834781    0.0000000  0.00   -0.0004664   -0.0008984   -0.0000000
 C    2.7569519   -8.3745331    0.0000000  0.00   -0.0005776   -0.0010032   -0.0000000
 C    1.4013359   -8.3100479    0.0000000  0.00    0.0007284    0.0008494   -0.0000000
 C    1.4222963   -3.3387334    0.0000000  0.00    0.0005216    0.0000243   -0.0000000
 C    0.7104503   -4.5840267    0.0000000  0.00   -0.0005619   -0.0014986   -0.0000000
 C    1.5822962   -0.8047563    0.0000000  0.00   -0.0011193    0.0000045   -0.0000000
 C    0.7367222   -1.9994469    0.0000000  0.00    0.0005246   -0.0001197   -0.0000000
 H    8.8626424   -7.3628905    0.0000000  0.00    0.0001570   -0.0006740   -0.0000000
 H    7.5604361   -9.4765177    0.0000000  0.00   -0.0003444   -0.0003525   -0.0000000
 H    5.1292392   -9.4286151    0.0000000  0.00   -0.0001668   -0.0006537   -0.0000000
 H    8.9203165   -4.9406337    0.0000000  0.00    0.0006233    0.0007373   -0.0000000
 H    9.0125775   -2.5134361    0.0000000  0.00    0.0003889    0.0006706   -0.0000000
 H    9.0582303    0.0000000    0.0000000  0.00   -0.0015255   -0.0000000   -0.0000000
 H    3.2243413   -9.3559617    0.0000000  0.00   -0.0004807   -0.0006725   -0.0000000
 H    0.8689089   -9.2557341    0.0000000  0.00    0.0003089    0.0009170   -0.0000000
 C   -7.1124957    6.0986281    0.0000000  0.00   -0.0001963   -0.0002080   -0.0000000
 C   -5.6799513    6.0578593    0.0000000  0.00    0.0002214    0.0004149   -0.0000000
 C   -7.7759804    7.3469039    0.0000000  0.00   -0.0005941   -0.0000169   -0.0000000
 C   -4.9558366    7.2686872    0.0000000  0.00    0.0000924   -0.0007665   -0.0000000
 C   -7.0528325    8.5154945    0.0000000  0.00    0.0002391    0.0005587   -0.0000000
 C   -5.6599226    8.4808594    0.0000000  0.00    0.0006040   -0.0000275   -0.0000000
 C   -7.1916001    3.6682052    0.0000000  0.00   -0.0005267    0.0002712   -0.0000000
 C   -5.7530968    3.6320845    0.0000000  0.00   -0.0007548   -0.0016820   -0.0000000
 C   -7.8351085    4.9027183    0.0000000  0.00   -0.0002081   -0.0005860   -0.0000000
 C   -4.9959989    4.8116410    0.0000000  0.00    0.0008054    0.0013003   -0.0000000
 C   -7.2861959    1.2335176    0.0000000  0.00    0.0006333   -0.0003483   -0.0000000
 C   -5.8470772    1.2232500    0.0000000  0.00    0.0003954   -0.0011372   -0.0000000
 C   -7.9289235    2.4647317    0.0000000  0.00   -0.0003090    0.0006441   -0.0000000
 C   -5.0811147    2.3953038    0.0000000  0.00   -0.0012576    0.0009952   -0.0000000
 C   -7.9737539    0.0000000    0.0000000  0.00   -0.0000741   -0.0000000   -0.0000000
 C   -5.1680734    0.0000000    0.0000000  0.00   -0.0017744   -0.0000000   -0.0000000
 C   -3.5598432    4.7458810    0.0000000  0.00   -0.0007497   -0.0019696   -0.0000000
 C   -2.8335479    5.9486316    0.0000000  0.00    0.0002287    0.0016253   -0.0000000
 C   -3.5129330    7.2026872    0.0000000  0.00    0.0002497   -0.0001035   -0.0000000
 C   -3.6427168    2.3482658    0.0000000  0.00    0.0009878   -0.0022541   -0.0000000
 C   -2.8619055    3.5016060    0.0000000  0.00   -0.0011457    0.0021499   -0.0000000
 C   -3.7818186    0.0000000    0.0000000  0.00    0.0025987   -0.0000000   -0.0000000
 C   -2.9814569    1.1258503    0.0000000  0.00   -0.0014622    0.0013394   -0.0000000
 C   -1.4133869    5.8589014    0.0000000  0.00   -0.0001494    0.0003539   -0.0000000
 C   -0.7108173    7.0834781    0.0000000  0.00    0.0004664    0.0008984   -0.0000000
 C   -2.7569519    8.3745331    0.0000000  0.00    0.0005776    0.0010032   -0.0000000
 C   -1.4013359    8.3100479    0.0000000  0.00   -0.0007284   -0.0008494   -0.0000000
 C   -1.4222963    3.3387334    0.0000000  0.00   -0.0005216   -0.0000243   -0.0000000
 C   -0.7104503    4.5840267    0.0000000  0.00    0.0005619    0.0014986   -0.0000000
 C   -1.5822962    0.8047563    0.0000000  0.00    0.0011193   -0.0000045   -0.0000000
 C   -0.7367222    1.9994469    0.0000000  0.00   -0.0005246    0.0001197   -0.0000000
 H   -8.8626424    7.3628905    0.0000000  0.00   -0.0001570    0.0006740   -0.0000000
 H   -7.5604361    9.4765177    0.0000000  0.00    0.0003444    0.0003525   -0.0000000
 H   -5.1292392    9.4286151    0.0000000  0.00    0.0001668    0.0006537   -0.0000000
 H   -8.9203165    4.9406337    0.0000000  0.00   -0.0006233   -0.0007373   -0.0000000
 H   -9.0125775    2.5134361    0.0000000  0.00   -0.0003889   -0.0006706   -0.0000000
 H   -9.0582303    0.0000000    0.0000000  0.00    0.0015255   -0.0000000   -0.0000000
 H   -3.2243413    9.3559617    0.0000000  0.00    0.0004807    0.0006725   -0.0000000
 H   -0.8689089    9.2557341    0.0000000  0.00   -0.0003089   -0.0009170   -0.0000000
 C    7.1124957    6.0986281    0.0000000  0.00    0.0001963   -0.0002080   -0.0000000
 C    5.6799513    6.0578593    0.0000000  0.00   -0.0002214    0.0004149   -0.0000000
 C    7.7759804    7.3469039    0.0000000  0.00    0.0005941   -0.0000169   -0.0000000
 C    4.9558366    7.2686872    0.0000000  0.00   -0.0000924   -0.0007665   -0.0000000
 C    7.0528325    8.5154945    0.0000000  0.00   -0.0002391    0.0005587   -0.0000000
 C    5.6599226    8.4808594    0.0000000  0.00   -0.0006040   -0.0000275   -0.0000000
 C    7.1916001    3.6682052    0.0000000  0.00    0.0005267    0.0002712   -0.0000000
 C    5.7530968    3.6320845    0.0000000  0.00    0.0007548   -0.0016820   -0.0000000
 C    7.8351085    4.9027183    0.0000000  0.00    0.0002081   -0.0005860   -0.0000000
 C    4.9959989    4.8116410    0.0000000  0.00   -0.0008054    0.0013003   -0.0000000
 C    7.2861959    1.2335176    0.0000000  0.00   -0.0006333   -0.0003483   -0.0000000
 C    5.8470772    1.2232500    0.0000000  0.00   -0.0003954   -0.0011372   -0.0000000
 C    7.9289235    2.4647317    0.0000000  0.00    0.0003090    0.0006441   -0.0000000
 C    5.0811147    2.3953038    0.0000000  0.00    0.0012576    0.0009952   -0.0000000
 C    3.5598432    4.7458810    0.0000000  0.00    0.0007497   -0.0019696   -0.0000000
 C    2.8335479    5.9486316    0.0000000  0.00   -0.0002287    0.0016253   -0.0000000
 C    3.5129330    7.2026872    0.0000000  0.00   -0.0002497   -0.0001035   -0.0000000
 C    3.6427168    2.3482658    0.0000000  0.00   -0.0009878   -0.0022541   -0.0000000
 C    2.8619055    3.5016060    0.0000000  0.00    0.0011457    0.0021499   -0.0000000
 C    2.9814569    1.1258503    0.0000000  0.00    0.0014622    0.0013394   -0.0000000
 C    1.4133869    5.8589014    0.0000000  0.00    0.0001494    0.0003539   -0.0000000
 C    0.7108173    7.0834781    0.0000000  0.00   -0.0004664    0.0008984   -0.0000000
 C    2.7569519    8.3745331    0.0000000  0.00   -0.0005776    0.0010032   -0.0000000
 C    1.4013359    8.3100479    0.0000000  0.00    0.0007284   -0.0008494   -0.0000000
 C    1.4222963    3.3387334    0.0000000  0.00    0.0005216   -0.0000243   -0.0000000
 C    0.7104503    4.5840267    0.0000000  0.00   -0.0005619    0.0014986   -0.0000000
 C    1.5822962    0.8047563    0.0000000  0.00   -0.0011193   -0.0000045   -0.0000000
 C    0.7367222    1.9994469    0.0000000  0.00    0.0005246    0.0001197   -0.0000000
 H    8.8626424    7.3628905    0.0000000  0.00    0.0001570    0.0006740   -0.0000000
 H    7.5604361    9.4765177    0.0000000  0.00   -0.0003444    0.0003525   -0.0000000
 H    5.1292392    9.4286151    0.0000000  0.00   -0.0001668    0.0006537   -0.0000000
 H    8.9203165    4.9406337    0.0000000  0.00    0.0006233   -0.0007373   -0.0000000
 H    9.0125775    2.5134361    0.0000000  0.00    0.0003889   -0.0006706   -0.0000000
 H    3.2243413    9.3559617    0.0000000  0.00   -0.0004807    0.0006725   -0.0000000
 H    0.8689089    9.2557341    0.0000000  0.00    0.0003089   -0.0009170   -0.0000000
 C   -7.1124957   -6.0986281    0.0000000  0.00   -0.0001963    0.0002080   -0.0000000
 C   -5.6799513   -6.0578593    0.0000000  0.00    0.0002214   -0.0004149   -0.0000000
 C   -7.7759804   -7.3469039    0.0000000  0.00   -0.0005941    0.0000169   -0.0000000
 C   -4.9558366   -7.2686872    0.0000000  0.00    0.0000924    0.0007665   -0.0000000
 C   -7.0528325   -8.5154945    0.0000000  0.00    0.0002391   -0.0005587   -0.0000000
 C   -5.6599226   -8.4808594    0.0000000  0.00    0.0006040    0.0000275   -0.0000000
 C   -7.1916001   -3.6682052    0.0000000  0.00   -0.0005267   -0.0002712   -0.0000000
 C   -5.7530968   -3.6320845    0.0000000  0.00   -0.0007548    0.0016820   -0.0000000
 C   -7.8351085   -4.9027183    0.0000000  0.00   -0.0002081    0.0005860   -0.0000000
 C   -4.9959989   -4.8116410    0.0000000  0.00    0.0008054   -0.0013003   -0.0000000
 C   -7.2861959   -1.2335176    0.0000000  0.00    0.0006333    0.0003483   -0.0000000
 C   -5.8470772   -1.2232500    0.0000000  0.00    0.0003954    0.0011372   -0.0000000
 C   -7.9289235   -2.4647317    0.0000000  0.00   -0.0003090   -0.0006441   -0.0000000
 C   -5.0811147   -2.3953038    0.0000000  0.00   -0.0012576   -0.0009952   -0.0000000
 C   -3.5598432   -4.7458810    0.0000000  0.00   -0.0007497    0.0019696   -0.0000000
 C   -2.8335479   -5.9486316    0.0000000  0.00    0.0002287   -0.0016253   -0.0000000
 C   -3.5129330   -7.2026872    0.0000000  0.00    0.0002497    0.0001035   -0.0000000
 C   -3.6427168   -2.3482658    0.0000000  0.00    0.0009878    0.0022541   -0.0000000
 C   -2.8619055   -3.5016060    0.0000000  0.00   -0.0011457   -0.0021499   -0.0000000
 C   -2.9814569   -1.1258503    0.0000000  0.00   -0.0014622   -0.0013394   -0.0000000
 C   -1.4133869   -5.8589014    0.0000000  0.00   -0.0001494   -0.0003539   -0.0000000
 C   -0.7108173   -7.0834781    0.0000000  0.00    0.0004664   -0.0008984   -0.0000000
 C   -2.7569519   -8.3745331    0.0000000  0.00    0.0005776   -0.0010032   -0.0000000
 C   -1.4013359   -8.3100479    0.0000000  0.00   -0.0007284    0.0008494   -0.0000000
 C   -1.4222963   -3.3387334    0.0000000  0.00   -0.0005216    0.0000243   -0.0000000
 C   -0.7104503   -4.5840267    0.0000000  0.00    0.0005619   -0.0014986   -0.0000000
 C   -1.5822962   -0.8047563    0.0000000  0.00    0.0011193    0.0000045   -0.0000000
 C   -0.7367222   -1.9994469    0.0000000  0.00   -0.0005246   -0.0001197   -0.0000000
 H   -8.8626424   -7.3628905    0.0000000  0.00   -0.0001570   -0.0006740   -0.0000000
 H   -7.5604361   -9.4765177    0.0000000  0.00    0.0003444   -0.0003525   -0.0000000
 H   -5.1292392   -9.4286151    0.0000000  0.00    0.0001668   -0.0006537   -0.0000000
 H   -8.9203165   -4.9406337    0.0000000  0.00   -0.0006233    0.0007373   -0.0000000
 H   -9.0125775   -2.5134361    0.0000000  0.00   -0.0003889    0.0006706   -0.0000000
 H   -3.2243413   -9.3559617    0.0000000  0.00    0.0004807   -0.0006725   -0.0000000
 H   -0.8689089   -9.2557341    0.0000000  0.00   -0.0003089    0.0009170   -0.0000000
