148
 Energy =   -4513.3812619900
 C    7.1227564   -6.1029256    0.0000000  0.00    0.0000324   -0.0008727   -0.0000000
 C    5.6891747   -6.0641875    0.0000000  0.00    0.0005930    0.0009766   -0.0000000
 C    7.7802537   -7.3520272    0.0000000  0.00   -0.0037357   -0.0000834   -0.0000000
 C    4.9647742   -7.2701061    0.0000000  0.00    0.0004464    0.0008571   -0.0000000
 C    7.0541629   -8.5226289    0.0000000  0.00    0.0001730    0.0019966   -0.0000000
 C    5.6626289   -8.4876036    0.0000000  0.00   -0.0019308   -0.0006200   -0.0000000
 C    7.2092746   -3.6666577    0.0000000  0.00   -0.0011741   -0.0008792   -0.0000000
 C    5.7647386   -3.6328251    0.0000000  0.00    0.0000176   -0.0006703   -0.0000000
 C    7.8462271   -4.9061320    0.0000000  0.00    0.0000946    0.0008691   -0.0000000
 C    5.0060841   -4.8108666    0.0000000  0.00   -0.0015855    0.0014660   -0.0000000
 C    7.3035778   -1.2287924    0.0000000  0.00   -0.0008372    0.0009026   -0.0000000
 C    5.8657674   -1.2198111    0.0000000  0.00    0.0000183   -0.0001493   -0.0000000
 C    7.9406860   -2.4701183    0.0000000  0.00    0.0007245   -0.0007744   -0.0000000
 C    5.0939330   -2.3979777    0.0000000  0.00   -0.0010221    0.0001698   -0.0000000
 C    7.9845715    0.0000000    0.0000000  0.00   -0.0025948   -0.0000000   -0.0000000
 C    5.1863097    0.0000000    0.0000000  0.00   -0.0004328   -0.0000000   -0.0000000
 C    3.5700490   -4.7395350    0.0000000  0.00    0.0001827   -0.0008760   -0.0000000
 C    2.8399953   -5.9419412    0.0000000  0.00   -0.0001200   -0.0003494   -0.0000000
 C    3.5185734   -7.1948840    0.0000000  0.00   -0.0001792   -0.0004743   -0.0000000
 C    3.6566946   -2.3484589    0.0000000  0.00    0.0006545    0.0000805   -0.0000000
 C    2.8746143   -3.4985710    0.0000000  0.00   -0.0017802    0.0002911   -0.0000000
 C    3.7937277    0.0000000    0.0000000  0.00   -0.0013897   -0.0000000   -0.0000000
 C    2.9940346   -1.1216102    0.0000000  0.00    0.0016002    0.0002904   -0.0000000
 C    1.4200172   -5.8482073    0.0000000  0.00   -0.0009695   -0.0000162   -0.0000000
 C    0.7153840   -7.0695993    0.0000000  0.00    0.0015117   -0.0009842   -0.0000000
 C    2.7617206   -8.3604052    0.0000000  0.00    0.0002649    0.0020638   -0.0000000
 C    1.4010679   -8.2914161    0.0000000  0.00   -0.0010432    0.0002020   -0.0000000
 C    1.4255407   -3.3336315    0.0000000  0.00    0.0012258    0.0005945   -0.0000000
 C    0.7178786   -4.5676422    0.0000000  0.00   -0.0010243   -0.0008556   -0.0000000
 C    1.5821523   -0.7941693    0.0000000  0.00    0.0003780    0.0043233   -0.0000000
 C    0.7383133   -1.9867576    0.0000000  0.00    0.0002114   -0.0008693   -0.0000000
 H    8.8641057   -7.3730838    0.0000000  0.00   -0.0006766   -0.0000105   -0.0000000
 H    7.5639260   -9.4792829    0.0000000  0.00   -0.0010218    0.0010560   -0.0000000
 H    5.1304702   -9.4272427    0.0000000  0.00    0.0000768   -0.0013752   -0.0000000
 H    8.9302729   -4.9446296    0.0000000  0.00   -0.0003153    0.0002317   -0.0000000
 H    9.0241994   -2.5183030    0.0000000  0.00   -0.0007315    0.0009706   -0.0000000
 H    9.0690040    0.0000000    0.0000000  0.00   -0.0001334   -0.0000000   -0.0000000
 H    3.2337108   -9.3311164    0.0000000  0.00    0.0000783    0.0004224   -0.0000000
 H    0.8620251   -9.2226399    0.0000000  0.00   -0.0009016   -0.0007905   -0.0000000
 C   -7.1227564    6.1029256    0.0000000  0.00   -0.0000324    0.0008727   -0.0000000
 C   -5.6891747    6.0641875    0.0000000  0.00   -0.0005930   -0.0009766   -0.0000000
 C   -7.7802537    7.3520272    0.0000000  0.00    0.0037357    0.0000834   -0.0000000
 C   -4.9647742    7.2701061    0.0000000  0.00   -0.0004464   -0.0008571   -0.0000000
 C   -7.0541629    8.5226289    0.0000000  0.00   -0.0001730   -0.0019966   -0.0000000
 C   -5.6626289    8.4876036    0.0000000  0.00    0.0019308    0.0006200   -0.0000000
 C   -7.2092746    3.6666577    0.0000000  0.00    0.0011741    0.0008792   -0.0000000
 C   -5.7647386    3.6328251    0.0000000  0.00   -0.0000176    0.0006703   -0.0000000
 C   -7.8462271    4.9061320    0.0000000  0.00   -0.0000946   -0.0008691   -0.0000000
 C   -5.0060841    4.8108666    0.0000000  0.00    0.0015855   -0.0014660   -0.0000000
 C   -7.3035778    1.2287924    0.0000000  0.00    0.0008372   -0.0009026   -0.0000000
 C   -5.8657674    1.2198111    0.0000000  0.00   -0.0000183    0.0001493   -0.0000000
 C   -7.9406860    2.4701183    0.0000000  0.00   -0.0007245    0.0007744   -0.0000000
 C   -5.0939330    2.3979777    0.0000000  0.00    0.0010221   -0.0001698   -0.0000000
 C   -7.9845715    0.0000000    0.0000000  0.00    0.0025948   -0.0000000   -0.0000000
 C   -5.1863097    0.0000000    0.0000000  0.00    0.0004328   -0.0000000   -0.0000000
 C   -3.5700490    4.7395350    0.0000000  0.00   -0.0001827    0.0008760   -0.0000000
 C   -2.8399953    5.9419412    0.0000000  0.00    0.0001200    0.0003494   -0.0000000
 C   -3.5185734    7.1948840    0.0000000  0.00    0.0001792    0.0004743   -0.0000000
 C   -3.6566946    2.3484589    0.0000000  0.00   -0.0006545   -0.0000805   -0.0000000
 C   -2.8746143    3.4985710    0.0000000  0.00    0.0017802   -0.0002911   -0.0000000
 C   -3.7937277    0.0000000    0.0000000  0.00    0.0013897   -0.0000000   -0.0000000
 C   -2.9940346    1.1216102    0.0000000  0.00   -0.0016002   -0.0002904   -0.0000000
 C   -1.4200172    5.8482073    0.0000000  0.00    0.0009695    0.0000162   -0.0000000
 C   -0.7153840    7.0695993    0.0000000  0.00   -0.0015117    0.0009842   -0.0000000
 C   -2.7617206    8.3604052    0.0000000  0.00   -0.0002649   -0.0020638   -0.0000000
 C   -1.4010679    8.2914161    0.0000000  0.00    0.0010432   -0.0002020   -0.0000000
 C   -1.4255407    3.3336315    0.0000000  0.00   -0.0012258   -0.0005945   -0.0000000
 C   -0.7178786    4.5676422    0.0000000  0.00    0.0010243    0.0008556   -0.0000000
 C   -1.5821523    0.7941693    0.0000000  0.00   -0.0003780   -0.0043233   -0.0000000
 C   -0.7383133    1.9867576    0.0000000  0.00   -0.0002114    0.0008693   -0.0000000
 H   -8.8641057    7.3730838    0.0000000  0.00    0.0006766    0.0000105   -0.0000000
 H   -7.5639260    9.4792829    0.0000000  0.00    0.0010218   -0.0010560   -0.0000000
 H   -5.1304702    9.4272427    0.0000000  0.00   -0.0000768    0.0013752   -0.0000000
 H   -8.9302729    4.9446296    0.0000000  0.00    0.0003153   -0.0002317   -0.0000000
 H   -9.0241994    2.5183030    0.0000000  0.00    0.0007315   -0.0009706   -0.0000000
 H   -9.0690040    0.0000000    0.0000000  0.00    0.0001334   -0.0000000   -0.0000000
 H   -3.2337108    9.3311164    0.0000000  0.00   -0.0000783   -0.0004224   -0.0000000
 H   -0.8620251    9.2226399    0.0000000  0.00    0.0009016    0.0007905   -0.0000000
 C    7.1227564    6.1029256    0.0000000  0.00    0.0000324    0.0008727   -0.0000000
 C    5.6891747    6.0641875    0.0000000  0.00    0.0005930   -0.0009766   -0.0000000
 C    7.7802537    7.3520272    0.0000000  0.00   -0.0037357    0.0000834   -0.0000000
 C    4.9647742    7.2701061    0.0000000  0.00    0.0004464   -0.0008571   -0.0000000
 C    7.0541629    8.5226289    0.0000000  0.00    0.0001730   -0.0019966   -0.0000000
 C    5.6626289    8.4876036    0.0000000  0.00   -0.0019308    0.0006200   -0.0000000
 C    7.2092746    3.6666577    0.0000000  0.00   -0.0011741    0.0008792   -0.0000000
 C    5.7647386    3.6328251    0.0000000  0.00    0.0000176    0.0006703   -0.0000000
 C    7.8462271    4.9061320    0.0000000  0.00    0.0000946   -0.0008691   -0.0000000
 C    5.0060841    4.8108666    0.0000000  0.00   -0.0015855   -0.0014660   -0.0000000
 C    7.3035778    1.2287924    0.0000000  0.00   -0.0008372   -0.0009026   -0.0000000
 C    5.8657674    1.2198111    0.0000000  0.00    0.0000183    0.0001493   -0.0000000
 C    7.9406860    2.4701183    0.0000000  0.00    0.0007245    0.0007744   -0.0000000
 C    5.0939330    2.3979777    0.0000000  0.00   -0.0010221   -0.0001698   -0.0000000
 C    3.5700490    4.7395350    0.0000000  0.00    0.0001827    0.0008760   -0.0000000
 C    2.8399953    5.9419412    0.0000000  0.00   -0.0001200    0.0003494   -0.0000000
 C    3.5185734    7.1948840    0.0000000  0.00   -0.0001792    0.0004743   -0.0000000
 C    3.6566946    2.3484589    0.0000000  0.00    0.0006545   -0.0000805   -0.0000000
 C    2.8746143    3.4985710    0.0000000  0.00   -0.0017802   -0.0002911   -0.0000000
 C    2.9940346    1.1216102    0.0000000  0.00    0.0016002   -0.0002904   -0.0000000
 C    1.4200172    5.8482073    0.0000000  0.00   -0.0009695    0.0000162   -0.0000000
 C    0.7153840    7.0695993    0.0000000  0.00    0.0015117    0.0009842   -0.0000000
 C    2.7617206    8.3604052    0.0000000  0.00    0.0002649   -0.0020638   -0.0000000
 C    1.4010679    8.2914161    0.0000000  0.00   -0.0010432   -0.0002020   -0.0000000
 C    1.4255407    3.3336315    0.0000000  0.00    0.0012258   -0.0005945   -0.0000000
 C    0.7178786    4.5676422    0.0000000  0.00   -0.0010243    0.0008556   -0.0000000
 C    1.5821523    0.7941693    0.0000000  0.00    0.0003780   -0.0043233   -0.0000000
 C    0.7383133    1.9867576    0.0000000  0.00    0.0002114    0.0008693   -0.0000000
 H    8.8641057    7.3730838    0.0000000  0.00   -0.0006766    0.0000105   -0.0000000
 H    7.5639260    9.4792829    0.0000000  0.00   -0.0010218   -0.0010560   -0.0000000
 H    5.1304702    9.4272427    0.0000000  0.00    0.0000768    0.0013752   -0.0000000
 H    8.9302729    4.9446296    0.0000000  0.00   -0.0003153   -0.0002317   -0.0000000
 H    9.0241994    2.5183030    0.0000000  0.00   -0.0007315   -0.0009706   -0.0000000
 H    3.2337108    9.3311164    0.0000000  0.00    0.0000783   -0.0004224   -0.0000000
 H    0.8620251    9.2226399    0.0000000  0.00   -0.0009016    0.0007905   -0.0000000
 C   -7.1227564   -6.1029256    0.0000000  0.00   -0.0000324   -0.0008727   -0.0000000
 C   -5.6891747   -6.0641875    0.0000000  0.00   -0.0005930    0.0009766   -0.0000000
 C   -7.7802537   -7.3520272    0.0000000  0.00    0.0037357   -0.0000834   -0.0000000
 C   -4.9647742   -7.2701061    0.0000000  0.00   -0.0004464    0.0008571   -0.0000000
 C   -7.0541629   -8.5226289    0.0000000  0.00   -0.0001730    0.0019966   -0.0000000
 C   -5.6626289   -8.4876036    0.0000000  0.00    0.0019308   -0.0006200   -0.0000000
 C   -7.2092746   -3.6666577    0.0000000  0.00    0.0011741   -0.0008792   -0.0000000
 C   -5.7647386   -3.6328251    0.0000000  0.00   -0.0000176   -0.0006703   -0.0000000
 C   -7.8462271   -4.9061320    0.0000000  0.00   -0.0000946    0.0008691   -0.0000000
 C   -5.0060841   -4.8108666    0.0000000  0.00    0.0015855    0.0014660   -0.0000000
 C   -7.3035778   -1.2287924    0.0000000  0.00    0.0008372    0.0009026   -0.0000000
 C   -5.8657674   -1.2198111    0.0000000  0.00   -0.0000183   -0.0001493   -0.0000000
 C   -7.9406860   -2.4701183    0.0000000  0.00   -0.0007245   -0.0007744   -0.0000000
 C   -5.0939330   -2.3979777    0.0000000  0.00    0.0010221    0.0001698   -0.0000000
 C   -3.5700490   -4.7395350    0.0000000  0.00   -0.0001827   -0.0008760   -0.0000000
 C   -2.8399953   -5.9419412    0.0000000  0.00    0.0001200   -0.0003494   -0.0000000
 C   -3.5185734   -7.1948840    0.0000000  0.00    0.0001792   -0.0004743   -0.0000000
 C   -3.6566946   -2.3484589    0.0000000  0.00   -0.0006545    0.0000805   -0.0000000
 C   -2.8746143   -3.4985710    0.0000000  0.00    0.0017802    0.0002911   -0.0000000
 C   -2.9940346   -1.1216102    0.0000000  0.00   -0.0016002    0.0002904   -0.0000000
 C   -1.4200172   -5.8482073    0.0000000  0.00    0.0009695   -0.0000162   -0.0000000
 C   -0.7153840   -7.0695993    0.0000000  0.00   -0.0015117   -0.0009842   -0.0000000
 C   -2.7617206   -8.3604052    0.0000000  0.00   -0.0002649    0.0020638   -0.0000000
 C   -1.4010679   -8.2914161    0.0000000  0.00    0.0010432    0.0002020   -0.0000000
 C   -1.4255407   -3.3336315    0.0000000  0.00   -0.0012258    0.0005945   -0.0000000
 C   -0.7178786   -4.5676422    0.0000000  0.00    0.0010243   -0.0008556   -0.0000000
 C   -1.5821523   -0.7941693    0.0000000  0.00   -0.0003780    0.0043233   -0.0000000
 C   -0.7383133   -1.9867576    0.0000000  0.00   -0.0002114   -0.0008693   -0.0000000
 H   -8.8641057   -7.3730838    0.0000000  0.00    0.0006766   -0.0000105   -0.0000000
 H   -7.5639260   -9.4792829    0.0000000  0.00    0.0010218    0.0010560   -0.0000000
 H   -5.1304702   -9.4272427    0.0000000  0.00   -0.0000768   -0.0013752   -0.0000000
 H   -8.9302729   -4.9446296    0.0000000  0.00    0.0003153    0.0002317   -0.0000000
 H   -9.0241994   -2.5183030    0.0000000  0.00    0.0007315    0.0009706   -0.0000000
 H   -3.2337108   -9.3311164    0.0000000  0.00   -0.0000783    0.0004224   -0.0000000
 H   -0.8620251   -9.2226399    0.0000000  0.00    0.0009016   -0.0007905   -0.0000000
