148
 Energy =   -4513.2670755980
 C    7.1170910   -6.0974146    0.0000000  0.00    0.0004146   -0.0029169   -0.0000000
 C    5.6851948   -6.0555227    0.0000000  0.00   -0.0030050   -0.0011124   -0.0000000
 C    7.7802615   -7.3436137    0.0000000  0.00   -0.0018495   -0.0018955   -0.0000000
 C    4.9610855   -7.2650698    0.0000000  0.00   -0.0002058   -0.0011399   -0.0000000
 C    7.0562956   -8.5119607    0.0000000  0.00    0.0010884    0.0019427   -0.0000000
 C    5.6634439   -8.4757618    0.0000000  0.00   -0.0040462   -0.0015132   -0.0000000
 C    7.1992693   -3.6659676    0.0000000  0.00   -0.0010833    0.0010525   -0.0000000
 C    5.7569247   -3.6298038    0.0000000  0.00   -0.0003937    0.0022430   -0.0000000
 C    7.8409752   -4.8993556    0.0000000  0.00    0.0002534   -0.0005158   -0.0000000
 C    5.0012133   -4.8072736    0.0000000  0.00    0.0005129   -0.0008523   -0.0000000
 C    7.2946842   -1.2293633    0.0000000  0.00   -0.0018805    0.0013593   -0.0000000
 C    5.8547568   -1.2201588    0.0000000  0.00   -0.0013882    0.0010285   -0.0000000
 C    7.9361655   -2.4654428    0.0000000  0.00    0.0006326   -0.0006463   -0.0000000
 C    5.0858301   -2.3947254    0.0000000  0.00   -0.0009150    0.0017108   -0.0000000
 C    7.9795687    0.0000000    0.0000000  0.00    0.0018119   -0.0000000   -0.0000000
 C    5.1761866    0.0000000    0.0000000  0.00   -0.0038877   -0.0000000   -0.0000000
 C    3.5630365   -4.7393591    0.0000000  0.00   -0.0020522    0.0035776   -0.0000000
 C    2.8354564   -5.9451391    0.0000000  0.00   -0.0000666   -0.0016755   -0.0000000
 C    3.5146229   -7.1974460    0.0000000  0.00   -0.0017976   -0.0000375   -0.0000000
 C    3.6473546   -2.3461427    0.0000000  0.00   -0.0015160    0.0028861   -0.0000000
 C    2.8667356   -3.4998181    0.0000000  0.00    0.0015158    0.0009570   -0.0000000
 C    3.7852317    0.0000000    0.0000000  0.00    0.0027069   -0.0000000   -0.0000000
 C    2.9865020   -1.1221751    0.0000000  0.00   -0.0029272    0.0002599   -0.0000000
 C    1.4159186   -5.8543513    0.0000000  0.00   -0.0015538    0.0007267   -0.0000000
 C    0.7129408   -7.0770322    0.0000000  0.00    0.0006485   -0.0007153   -0.0000000
 C    2.7594002   -8.3665597    0.0000000  0.00   -0.0002767   -0.0007099   -0.0000000
 C    1.4015714   -8.3005217    0.0000000  0.00   -0.0001313   -0.0006885   -0.0000000
 C    1.4216193   -3.3359709    0.0000000  0.00   -0.0026996    0.0015458   -0.0000000
 C    0.7122207   -4.5757166    0.0000000  0.00    0.0014896    0.0008482   -0.0000000
 C    1.5836368   -0.7933218    0.0000000  0.00   -0.0008716    0.0006844   -0.0000000
 C    0.7339497   -1.9971074    0.0000000  0.00    0.0008718   -0.0003674   -0.0000000
 H    8.8669789   -7.3607651    0.0000000  0.00    0.0017653    0.0022191   -0.0000000
 H    7.5626908   -9.4738013    0.0000000  0.00    0.0005229    0.0012913   -0.0000000
 H    5.1327513   -9.4235778    0.0000000  0.00   -0.0019504    0.0003250   -0.0000000
 H    8.9264186   -4.9380061    0.0000000  0.00    0.0004770   -0.0000474   -0.0000000
 H    9.0199714   -2.5141976    0.0000000  0.00   -0.0008319   -0.0009484   -0.0000000
 H    9.0641057    0.0000000    0.0000000  0.00   -0.0015729   -0.0000000   -0.0000000
 H    3.2247189   -9.3487328    0.0000000  0.00    0.0029716    0.0003668   -0.0000000
 H    0.8695505   -9.2460403    0.0000000  0.00   -0.0012795    0.0015758   -0.0000000
 C   -7.1170910    6.0974146    0.0000000  0.00   -0.0004146    0.0029169   -0.0000000
 C   -5.6851948    6.0555227    0.0000000  0.00    0.0030050    0.0011124   -0.0000000
 C   -7.7802615    7.3436137    0.0000000  0.00    0.0018495    0.0018955   -0.0000000
 C   -4.9610855    7.2650698    0.0000000  0.00    0.0002058    0.0011399   -0.0000000
 C   -7.0562956    8.5119607    0.0000000  0.00   -0.0010884   -0.0019427   -0.0000000
 C   -5.6634439    8.4757618    0.0000000  0.00    0.0040462    0.0015132   -0.0000000
 C   -7.1992693    3.6659676    0.0000000  0.00    0.0010833   -0.0010525   -0.0000000
 C   -5.7569247    3.6298038    0.0000000  0.00    0.0003937   -0.0022430   -0.0000000
 C   -7.8409752    4.8993556    0.0000000  0.00   -0.0002534    0.0005158   -0.0000000
 C   -5.0012133    4.8072736    0.0000000  0.00   -0.0005129    0.0008523   -0.0000000
 C   -7.2946842    1.2293633    0.0000000  0.00    0.0018805   -0.0013593   -0.0000000
 C   -5.8547568    1.2201588    0.0000000  0.00    0.0013882   -0.0010285   -0.0000000
 C   -7.9361655    2.4654428    0.0000000  0.00   -0.0006326    0.0006463   -0.0000000
 C   -5.0858301    2.3947254    0.0000000  0.00    0.0009150   -0.0017108   -0.0000000
 C   -7.9795687    0.0000000    0.0000000  0.00   -0.0018119   -0.0000000   -0.0000000
 C   -5.1761866    0.0000000    0.0000000  0.00    0.0038877   -0.0000000   -0.0000000
 C   -3.5630365    4.7393591    0.0000000  0.00    0.0020522   -0.0035776   -0.0000000
 C   -2.8354564    5.9451391    0.0000000  0.00    0.0000666    0.0016755   -0.0000000
 C   -3.5146229    7.1974460    0.0000000  0.00    0.0017976    0.0000375   -0.0000000
 C   -3.6473546    2.3461427    0.0000000  0.00    0.0015160   -0.0028861   -0.0000000
 C   -2.8667356    3.4998181    0.0000000  0.00   -0.0015158   -0.0009570   -0.0000000
 C   -3.7852317    0.0000000    0.0000000  0.00   -0.0027069   -0.0000000   -0.0000000
 C   -2.9865020    1.1221751    0.0000000  0.00    0.0029272   -0.0002599   -0.0000000
 C   -1.4159186    5.8543513    0.0000000  0.00    0.0015538   -0.0007267   -0.0000000
 C   -0.7129408    7.0770322    0.0000000  0.00   -0.0006485    0.0007153   -0.0000000
 C   -2.7594002    8.3665597    0.0000000  0.00    0.0002767    0.0007099   -0.0000000
 C   -1.4015714    8.3005217    0.0000000  0.00    0.0001313    0.0006885   -0.0000000
 C   -1.4216193    3.3359709    0.0000000  0.00    0.0026996   -0.0015458   -0.0000000
 C   -0.7122207    4.5757166    0.0000000  0.00   -0.0014896   -0.0008482   -0.0000000
 C   -1.5836368    0.7933218    0.0000000  0.00    0.0008716   -0.0006844   -0.0000000
 C   -0.7339497    1.9971074    0.0000000  0.00   -0.0008718    0.0003674   -0.0000000
 H   -8.8669789    7.3607651    0.0000000  0.00   -0.0017653   -0.0022191   -0.0000000
 H   -7.5626908    9.4738013    0.0000000  0.00   -0.0005229   -0.0012913   -0.0000000
 H   -5.1327513    9.4235778    0.0000000  0.00    0.0019504   -0.0003250   -0.0000000
 H   -8.9264186    4.9380061    0.0000000  0.00   -0.0004770    0.0000474   -0.0000000
 H   -9.0199714    2.5141976    0.0000000  0.00    0.0008319    0.0009484   -0.0000000
 H   -9.0641057    0.0000000    0.0000000  0.00    0.0015729   -0.0000000   -0.0000000
 H   -3.2247189    9.3487328    0.0000000  0.00   -0.0029716   -0.0003668   -0.0000000
 H   -0.8695505    9.2460403    0.0000000  0.00    0.0012795   -0.0015758   -0.0000000
 C    7.1170910    6.0974146    0.0000000  0.00    0.0004146    0.0029169   -0.0000000
 C    5.6851948    6.0555227    0.0000000  0.00   -0.0030050    0.0011124   -0.0000000
 C    7.7802615    7.3436137    0.0000000  0.00   -0.0018495    0.0018955   -0.0000000
 C    4.9610855    7.2650698    0.0000000  0.00   -0.0002058    0.0011399   -0.0000000
 C    7.0562956    8.5119607    0.0000000  0.00    0.0010884   -0.0019427   -0.0000000
 C    5.6634439    8.4757618    0.0000000  0.00   -0.0040462    0.0015132   -0.0000000
 C    7.1992693    3.6659676    0.0000000  0.00   -0.0010833   -0.0010525   -0.0000000
 C    5.7569247    3.6298038    0.0000000  0.00   -0.0003937   -0.0022430   -0.0000000
 C    7.8409752    4.8993556    0.0000000  0.00    0.0002534    0.0005158   -0.0000000
 C    5.0012133    4.8072736    0.0000000  0.00    0.0005129    0.0008523   -0.0000000
 C    7.2946842    1.2293633    0.0000000  0.00   -0.0018805   -0.0013593   -0.0000000
 C    5.8547568    1.2201588    0.0000000  0.00   -0.0013882   -0.0010285   -0.0000000
 C    7.9361655    2.4654428    0.0000000  0.00    0.0006326    0.0006463   -0.0000000
 C    5.0858301    2.3947254    0.0000000  0.00   -0.0009150   -0.0017108   -0.0000000
 C    3.5630365    4.7393591    0.0000000  0.00   -0.0020522   -0.0035776   -0.0000000
 C    2.8354564    5.9451391    0.0000000  0.00   -0.0000666    0.0016755   -0.0000000
 C    3.5146229    7.1974460    0.0000000  0.00   -0.0017976    0.0000375   -0.0000000
 C    3.6473546    2.3461427    0.0000000  0.00   -0.0015160   -0.0028861   -0.0000000
 C    2.8667356    3.4998181    0.0000000  0.00    0.0015158   -0.0009570   -0.0000000
 C    2.9865020    1.1221751    0.0000000  0.00   -0.0029272   -0.0002599   -0.0000000
 C    1.4159186    5.8543513    0.0000000  0.00   -0.0015538   -0.0007267   -0.0000000
 C    0.7129408    7.0770322    0.0000000  0.00    0.0006485    0.0007153   -0.0000000
 C    2.7594002    8.3665597    0.0000000  0.00   -0.0002767    0.0007099   -0.0000000
 C    1.4015714    8.3005217    0.0000000  0.00   -0.0001313    0.0006885   -0.0000000
 C    1.4216193    3.3359709    0.0000000  0.00   -0.0026996   -0.0015458   -0.0000000
 C    0.7122207    4.5757166    0.0000000  0.00    0.0014896   -0.0008482   -0.0000000
 C    1.5836368    0.7933218    0.0000000  0.00   -0.0008716   -0.0006844   -0.0000000
 C    0.7339497    1.9971074    0.0000000  0.00    0.0008718    0.0003674   -0.0000000
 H    8.8669789    7.3607651    0.0000000  0.00    0.0017653   -0.0022191   -0.0000000
 H    7.5626908    9.4738013    0.0000000  0.00    0.0005229   -0.0012913   -0.0000000
 H    5.1327513    9.4235778    0.0000000  0.00   -0.0019504   -0.0003250   -0.0000000
 H    8.9264186    4.9380061    0.0000000  0.00    0.0004770    0.0000474   -0.0000000
 H    9.0199714    2.5141976    0.0000000  0.00   -0.0008319    0.0009484   -0.0000000
 H    3.2247189    9.3487328    0.0000000  0.00    0.0029716   -0.0003668   -0.0000000
 H    0.8695505    9.2460403    0.0000000  0.00   -0.0012795   -0.0015758   -0.0000000
 C   -7.1170910   -6.0974146    0.0000000  0.00   -0.0004146   -0.0029169   -0.0000000
 C   -5.6851948   -6.0555227    0.0000000  0.00    0.0030050   -0.0011124   -0.0000000
 C   -7.7802615   -7.3436137    0.0000000  0.00    0.0018495   -0.0018955   -0.0000000
 C   -4.9610855   -7.2650698    0.0000000  0.00    0.0002058   -0.0011399   -0.0000000
 C   -7.0562956   -8.5119607    0.0000000  0.00   -0.0010884    0.0019427   -0.0000000
 C   -5.6634439   -8.4757618    0.0000000  0.00    0.0040462   -0.0015132   -0.0000000
 C   -7.1992693   -3.6659676    0.0000000  0.00    0.0010833    0.0010525   -0.0000000
 C   -5.7569247   -3.6298038    0.0000000  0.00    0.0003937    0.0022430   -0.0000000
 C   -7.8409752   -4.8993556    0.0000000  0.00   -0.0002534   -0.0005158   -0.0000000
 C   -5.0012133   -4.8072736    0.0000000  0.00   -0.0005129   -0.0008523   -0.0000000
 C   -7.2946842   -1.2293633    0.0000000  0.00    0.0018805    0.0013593   -0.0000000
 C   -5.8547568   -1.2201588    0.0000000  0.00    0.0013882    0.0010285   -0.0000000
 C   -7.9361655   -2.4654428    0.0000000  0.00   -0.0006326   -0.0006463   -0.0000000
 C   -5.0858301   -2.3947254    0.0000000  0.00    0.0009150    0.0017108   -0.0000000
 C   -3.5630365   -4.7393591    0.0000000  0.00    0.0020522    0.0035776   -0.0000000
 C   -2.8354564   -5.9451391    0.0000000  0.00    0.0000666   -0.0016755   -0.0000000
 C   -3.5146229   -7.1974460    0.0000000  0.00    0.0017976   -0.0000375   -0.0000000
 C   -3.6473546   -2.3461427    0.0000000  0.00    0.0015160    0.0028861   -0.0000000
 C   -2.8667356   -3.4998181    0.0000000  0.00   -0.0015158    0.0009570   -0.0000000
 C   -2.9865020   -1.1221751    0.0000000  0.00    0.0029272    0.0002599   -0.0000000
 C   -1.4159186   -5.8543513    0.0000000  0.00    0.0015538    0.0007267   -0.0000000
 C   -0.7129408   -7.0770322    0.0000000  0.00   -0.0006485   -0.0007153   -0.0000000
 C   -2.7594002   -8.3665597    0.0000000  0.00    0.0002767   -0.0007099   -0.0000000
 C   -1.4015714   -8.3005217    0.0000000  0.00    0.0001313   -0.0006885   -0.0000000
 C   -1.4216193   -3.3359709    0.0000000  0.00    0.0026996    0.0015458   -0.0000000
 C   -0.7122207   -4.5757166    0.0000000  0.00   -0.0014896    0.0008482   -0.0000000
 C   -1.5836368   -0.7933218    0.0000000  0.00    0.0008716    0.0006844   -0.0000000
 C   -0.7339497   -1.9971074    0.0000000  0.00   -0.0008718   -0.0003674   -0.0000000
 H   -8.8669789   -7.3607651    0.0000000  0.00   -0.0017653    0.0022191   -0.0000000
 H   -7.5626908   -9.4738013    0.0000000  0.00   -0.0005229    0.0012913   -0.0000000
 H   -5.1327513   -9.4235778    0.0000000  0.00    0.0019504    0.0003250   -0.0000000
 H   -8.9264186   -4.9380061    0.0000000  0.00   -0.0004770   -0.0000474   -0.0000000
 H   -9.0199714   -2.5141976    0.0000000  0.00    0.0008319   -0.0009484   -0.0000000
 H   -3.2247189   -9.3487328    0.0000000  0.00   -0.0029716    0.0003668   -0.0000000
 H   -0.8695505   -9.2460403    0.0000000  0.00    0.0012795    0.0015758   -0.0000000
