148
 Energy =   -4513.4056115790
 C    7.1246035   -6.1050659    0.0000000  0.00   -0.0005892   -0.0007722   -0.0000000
 C    5.6886824   -6.0698334    0.0000000  0.00   -0.0002508    0.0010038   -0.0000000
 C    7.7855614   -7.3530726    0.0000000  0.00    0.0004653    0.0007471   -0.0000000
 C    4.9659468   -7.2789814    0.0000000  0.00    0.0007582   -0.0007157   -0.0000000
 C    7.0617038   -8.5255462    0.0000000  0.00    0.0007251   -0.0004422   -0.0000000
 C    5.6710495   -8.4952244    0.0000000  0.00    0.0008331    0.0014465   -0.0000000
 C    7.1986686   -3.6673678    0.0000000  0.00   -0.0007692    0.0001114   -0.0000000
 C    5.7544029   -3.6357842    0.0000000  0.00   -0.0011027    0.0002441   -0.0000000
 C    7.8440580   -4.9062611    0.0000000  0.00    0.0005250    0.0005607   -0.0000000
 C    5.0001158   -4.8203987    0.0000000  0.00    0.0004479    0.0003581   -0.0000000
 C    7.2755785   -1.2297801    0.0000000  0.00   -0.0012990    0.0003024   -0.0000000
 C    5.8401048   -1.2220018    0.0000000  0.00   -0.0005571   -0.0000071   -0.0000000
 C    7.9240990   -2.4677209    0.0000000  0.00    0.0000848   -0.0003915   -0.0000000
 C    5.0795637   -2.4044045    0.0000000  0.00   -0.0001360    0.0010226   -0.0000000
 C    7.9560891    0.0000000    0.0000000  0.00    0.0005966   -0.0000000   -0.0000000
 C    5.1616026    0.0000000    0.0000000  0.00   -0.0018005   -0.0000000   -0.0000000
 C    3.5693896   -4.7573882    0.0000000  0.00   -0.0003449    0.0000176   -0.0000000
 C    2.8404520   -5.9583340    0.0000000  0.00   -0.0000530   -0.0003568   -0.0000000
 C    3.5224778   -7.2108377    0.0000000  0.00    0.0010840    0.0009766   -0.0000000
 C    3.6439441   -2.3599419    0.0000000  0.00    0.0005111   -0.0000392   -0.0000000
 C    2.8672654   -3.5113417    0.0000000  0.00   -0.0002458    0.0000548   -0.0000000
 C    3.7697409    0.0000000    0.0000000  0.00    0.0013265   -0.0000000   -0.0000000
 C    2.9787768   -1.1328205    0.0000000  0.00    0.0000152    0.0006972   -0.0000000
 C    1.4174616   -5.8700948    0.0000000  0.00    0.0001206   -0.0003200   -0.0000000
 C    0.7132785   -7.0920574    0.0000000  0.00   -0.0000107    0.0005011   -0.0000000
 C    2.7643311   -8.3797873    0.0000000  0.00    0.0004328   -0.0006286   -0.0000000
 C    1.4057308   -8.3151669    0.0000000  0.00   -0.0008344   -0.0011883   -0.0000000
 C    1.4286158   -3.3576240    0.0000000  0.00    0.0004155    0.0002004   -0.0000000
 C    0.7135039   -4.5930805    0.0000000  0.00    0.0005708   -0.0001869   -0.0000000
 C    1.5840274   -0.8376126    0.0000000  0.00   -0.0002841   -0.0006412   -0.0000000
 C    0.7448857   -2.0082398    0.0000000  0.00    0.0007389    0.0001750   -0.0000000
 H    8.8694446   -7.3717749    0.0000000  0.00   -0.0004372    0.0009082   -0.0000000
 H    7.5739086   -9.4808663    0.0000000  0.00    0.0005471    0.0003973   -0.0000000
 H    5.1418387   -9.4367585    0.0000000  0.00    0.0002826    0.0013480   -0.0000000
 H    8.9282229   -4.9392144    0.0000000  0.00   -0.0002266   -0.0002771   -0.0000000
 H    9.0080114   -2.5075489    0.0000000  0.00   -0.0000529    0.0007034   -0.0000000
 H    9.0410383    0.0000000    0.0000000  0.00   -0.0014162   -0.0000000   -0.0000000
 H    3.2391178   -9.3493505    0.0000000  0.00   -0.0003697    0.0002602   -0.0000000
 H    0.8676333   -9.2473898    0.0000000  0.00   -0.0003364    0.0008728   -0.0000000
 C   -7.1246035    6.1050659    0.0000000  0.00    0.0005892    0.0007722   -0.0000000
 C   -5.6886824    6.0698334    0.0000000  0.00    0.0002508   -0.0010038   -0.0000000
 C   -7.7855614    7.3530726    0.0000000  0.00   -0.0004653   -0.0007471   -0.0000000
 C   -4.9659468    7.2789814    0.0000000  0.00   -0.0007582    0.0007157   -0.0000000
 C   -7.0617038    8.5255462    0.0000000  0.00   -0.0007251    0.0004422   -0.0000000
 C   -5.6710495    8.4952244    0.0000000  0.00   -0.0008331   -0.0014465   -0.0000000
 C   -7.1986686    3.6673678    0.0000000  0.00    0.0007692   -0.0001114   -0.0000000
 C   -5.7544029    3.6357842    0.0000000  0.00    0.0011027   -0.0002441   -0.0000000
 C   -7.8440580    4.9062611    0.0000000  0.00   -0.0005250   -0.0005607   -0.0000000
 C   -5.0001158    4.8203987    0.0000000  0.00   -0.0004479   -0.0003581   -0.0000000
 C   -7.2755785    1.2297801    0.0000000  0.00    0.0012990   -0.0003024   -0.0000000
 C   -5.8401048    1.2220018    0.0000000  0.00    0.0005571    0.0000071   -0.0000000
 C   -7.9240990    2.4677209    0.0000000  0.00   -0.0000848    0.0003915   -0.0000000
 C   -5.0795637    2.4044045    0.0000000  0.00    0.0001360   -0.0010226   -0.0000000
 C   -7.9560891    0.0000000    0.0000000  0.00   -0.0005966   -0.0000000   -0.0000000
 C   -5.1616026    0.0000000    0.0000000  0.00    0.0018005   -0.0000000   -0.0000000
 C   -3.5693896    4.7573882    0.0000000  0.00    0.0003449   -0.0000176   -0.0000000
 C   -2.8404520    5.9583340    0.0000000  0.00    0.0000530    0.0003568   -0.0000000
 C   -3.5224778    7.2108377    0.0000000  0.00   -0.0010840   -0.0009766   -0.0000000
 C   -3.6439441    2.3599419    0.0000000  0.00   -0.0005111    0.0000392   -0.0000000
 C   -2.8672654    3.5113417    0.0000000  0.00    0.0002458   -0.0000548   -0.0000000
 C   -3.7697409    0.0000000    0.0000000  0.00   -0.0013265   -0.0000000   -0.0000000
 C   -2.9787768    1.1328205    0.0000000  0.00   -0.0000152   -0.0006972   -0.0000000
 C   -1.4174616    5.8700948    0.0000000  0.00   -0.0001206    0.0003200   -0.0000000
 C   -0.7132785    7.0920574    0.0000000  0.00    0.0000107   -0.0005011   -0.0000000
 C   -2.7643311    8.3797873    0.0000000  0.00   -0.0004328    0.0006286   -0.0000000
 C   -1.4057308    8.3151669    0.0000000  0.00    0.0008344    0.0011883   -0.0000000
 C   -1.4286158    3.3576240    0.0000000  0.00   -0.0004155   -0.0002004   -0.0000000
 C   -0.7135039    4.5930805    0.0000000  0.00   -0.0005708    0.0001869   -0.0000000
 C   -1.5840274    0.8376126    0.0000000  0.00    0.0002841    0.0006412   -0.0000000
 C   -0.7448857    2.0082398    0.0000000  0.00   -0.0007389   -0.0001750   -0.0000000
 H   -8.8694446    7.3717749    0.0000000  0.00    0.0004372   -0.0009082   -0.0000000
 H   -7.5739086    9.4808663    0.0000000  0.00   -0.0005471   -0.0003973   -0.0000000
 H   -5.1418387    9.4367585    0.0000000  0.00   -0.0002826   -0.0013480   -0.0000000
 H   -8.9282229    4.9392144    0.0000000  0.00    0.0002266    0.0002771   -0.0000000
 H   -9.0080114    2.5075489    0.0000000  0.00    0.0000529   -0.0007034   -0.0000000
 H   -9.0410383    0.0000000    0.0000000  0.00    0.0014162   -0.0000000   -0.0000000
 H   -3.2391178    9.3493505    0.0000000  0.00    0.0003697   -0.0002602   -0.0000000
 H   -0.8676333    9.2473898    0.0000000  0.00    0.0003364   -0.0008728   -0.0000000
 C    7.1246035    6.1050659    0.0000000  0.00   -0.0005892    0.0007722   -0.0000000
 C    5.6886824    6.0698334    0.0000000  0.00   -0.0002508   -0.0010038   -0.0000000
 C    7.7855614    7.3530726    0.0000000  0.00    0.0004653   -0.0007471   -0.0000000
 C    4.9659468    7.2789814    0.0000000  0.00    0.0007582    0.0007157   -0.0000000
 C    7.0617038    8.5255462    0.0000000  0.00    0.0007251    0.0004422   -0.0000000
 C    5.6710495    8.4952244    0.0000000  0.00    0.0008331   -0.0014465   -0.0000000
 C    7.1986686    3.6673678    0.0000000  0.00   -0.0007692   -0.0001114   -0.0000000
 C    5.7544029    3.6357842    0.0000000  0.00   -0.0011027   -0.0002441   -0.0000000
 C    7.8440580    4.9062611    0.0000000  0.00    0.0005250   -0.0005607   -0.0000000
 C    5.0001158    4.8203987    0.0000000  0.00    0.0004479   -0.0003581   -0.0000000
 C    7.2755785    1.2297801    0.0000000  0.00   -0.0012990   -0.0003024   -0.0000000
 C    5.8401048    1.2220018    0.0000000  0.00   -0.0005571    0.0000071   -0.0000000
 C    7.9240990    2.4677209    0.0000000  0.00    0.0000848    0.0003915   -0.0000000
 C    5.0795637    2.4044045    0.0000000  0.00   -0.0001360   -0.0010226   -0.0000000
 C    3.5693896    4.7573882    0.0000000  0.00   -0.0003449   -0.0000176   -0.0000000
 C    2.8404520    5.9583340    0.0000000  0.00   -0.0000530    0.0003568   -0.0000000
 C    3.5224778    7.2108377    0.0000000  0.00    0.0010840   -0.0009766   -0.0000000
 C    3.6439441    2.3599419    0.0000000  0.00    0.0005111    0.0000392   -0.0000000
 C    2.8672654    3.5113417    0.0000000  0.00   -0.0002458   -0.0000548   -0.0000000
 C    2.9787768    1.1328205    0.0000000  0.00    0.0000152   -0.0006972   -0.0000000
 C    1.4174616    5.8700948    0.0000000  0.00    0.0001206    0.0003200   -0.0000000
 C    0.7132785    7.0920574    0.0000000  0.00   -0.0000107   -0.0005011   -0.0000000
 C    2.7643311    8.3797873    0.0000000  0.00    0.0004328    0.0006286   -0.0000000
 C    1.4057308    8.3151669    0.0000000  0.00   -0.0008344    0.0011883   -0.0000000
 C    1.4286158    3.3576240    0.0000000  0.00    0.0004155   -0.0002004   -0.0000000
 C    0.7135039    4.5930805    0.0000000  0.00    0.0005708    0.0001869   -0.0000000
 C    1.5840274    0.8376126    0.0000000  0.00   -0.0002841    0.0006412   -0.0000000
 C    0.7448857    2.0082398    0.0000000  0.00    0.0007389   -0.0001750   -0.0000000
 H    8.8694446    7.3717749    0.0000000  0.00   -0.0004372   -0.0009082   -0.0000000
 H    7.5739086    9.4808663    0.0000000  0.00    0.0005471   -0.0003973   -0.0000000
 H    5.1418387    9.4367585    0.0000000  0.00    0.0002826   -0.0013480   -0.0000000
 H    8.9282229    4.9392144    0.0000000  0.00   -0.0002266    0.0002771   -0.0000000
 H    9.0080114    2.5075489    0.0000000  0.00   -0.0000529   -0.0007034   -0.0000000
 H    3.2391178    9.3493505    0.0000000  0.00   -0.0003697   -0.0002602   -0.0000000
 H    0.8676333    9.2473898    0.0000000  0.00   -0.0003364   -0.0008728   -0.0000000
 C   -7.1246035   -6.1050659    0.0000000  0.00    0.0005892   -0.0007722   -0.0000000
 C   -5.6886824   -6.0698334    0.0000000  0.00    0.0002508    0.0010038   -0.0000000
 C   -7.7855614   -7.3530726    0.0000000  0.00   -0.0004653    0.0007471   -0.0000000
 C   -4.9659468   -7.2789814    0.0000000  0.00   -0.0007582   -0.0007157   -0.0000000
 C   -7.0617038   -8.5255462    0.0000000  0.00   -0.0007251   -0.0004422   -0.0000000
 C   -5.6710495   -8.4952244    0.0000000  0.00   -0.0008331    0.0014465   -0.0000000
 C   -7.1986686   -3.6673678    0.0000000  0.00    0.0007692    0.0001114   -0.0000000
 C   -5.7544029   -3.6357842    0.0000000  0.00    0.0011027    0.0002441   -0.0000000
 C   -7.8440580   -4.9062611    0.0000000  0.00   -0.0005250    0.0005607   -0.0000000
 C   -5.0001158   -4.8203987    0.0000000  0.00   -0.0004479    0.0003581   -0.0000000
 C   -7.2755785   -1.2297801    0.0000000  0.00    0.0012990    0.0003024   -0.0000000
 C   -5.8401048   -1.2220018    0.0000000  0.00    0.0005571   -0.0000071   -0.0000000
 C   -7.9240990   -2.4677209    0.0000000  0.00   -0.0000848   -0.0003915   -0.0000000
 C   -5.0795637   -2.4044045    0.0000000  0.00    0.0001360    0.0010226   -0.0000000
 C   -3.5693896   -4.7573882    0.0000000  0.00    0.0003449    0.0000176   -0.0000000
 C   -2.8404520   -5.9583340    0.0000000  0.00    0.0000530   -0.0003568   -0.0000000
 C   -3.5224778   -7.2108377    0.0000000  0.00   -0.0010840    0.0009766   -0.0000000
 C   -3.6439441   -2.3599419    0.0000000  0.00   -0.0005111   -0.0000392   -0.0000000
 C   -2.8672654   -3.5113417    0.0000000  0.00    0.0002458    0.0000548   -0.0000000
 C   -2.9787768   -1.1328205    0.0000000  0.00   -0.0000152    0.0006972   -0.0000000
 C   -1.4174616   -5.8700948    0.0000000  0.00   -0.0001206   -0.0003200   -0.0000000
 C   -0.7132785   -7.0920574    0.0000000  0.00    0.0000107    0.0005011   -0.0000000
 C   -2.7643311   -8.3797873    0.0000000  0.00   -0.0004328   -0.0006286   -0.0000000
 C   -1.4057308   -8.3151669    0.0000000  0.00    0.0008344   -0.0011883   -0.0000000
 C   -1.4286158   -3.3576240    0.0000000  0.00   -0.0004155    0.0002004   -0.0000000
 C   -0.7135039   -4.5930805    0.0000000  0.00   -0.0005708   -0.0001869   -0.0000000
 C   -1.5840274   -0.8376126    0.0000000  0.00    0.0002841   -0.0006412   -0.0000000
 C   -0.7448857   -2.0082398    0.0000000  0.00   -0.0007389    0.0001750   -0.0000000
 H   -8.8694446   -7.3717749    0.0000000  0.00    0.0004372    0.0009082   -0.0000000
 H   -7.5739086   -9.4808663    0.0000000  0.00   -0.0005471    0.0003973   -0.0000000
 H   -5.1418387   -9.4367585    0.0000000  0.00   -0.0002826    0.0013480   -0.0000000
 H   -8.9282229   -4.9392144    0.0000000  0.00    0.0002266   -0.0002771   -0.0000000
 H   -9.0080114   -2.5075489    0.0000000  0.00    0.0000529    0.0007034   -0.0000000
 H   -3.2391178   -9.3493505    0.0000000  0.00    0.0003697    0.0002602   -0.0000000
 H   -0.8676333   -9.2473898    0.0000000  0.00    0.0003364    0.0008728   -0.0000000
