148
 Energy =   -4513.4075332460
 C    7.1188148   -6.1101557    0.0000000  0.00    0.0010983    0.0038956   -0.0000000
 C    5.6850575   -6.0742565    0.0000000  0.00   -0.0010089   -0.0006188   -0.0000000
 C    7.7804616   -7.3547871    0.0000000  0.00    0.0003396   -0.0001533   -0.0000000
 C    4.9618040   -7.2833933    0.0000000  0.00    0.0015480    0.0019093   -0.0000000
 C    7.0569025   -8.5297707    0.0000000  0.00   -0.0005064    0.0015132   -0.0000000
 C    5.6682520   -8.5001601    0.0000000  0.00   -0.0000287   -0.0008338   -0.0000000
 C    7.1932445   -3.6727175    0.0000000  0.00    0.0005951    0.0013981   -0.0000000
 C    5.7507653   -3.6382118    0.0000000  0.00   -0.0001137   -0.0026162   -0.0000000
 C    7.8383732   -4.9061296    0.0000000  0.00   -0.0009972   -0.0011515   -0.0000000
 C    4.9955144   -4.8241412    0.0000000  0.00    0.0011524    0.0022603   -0.0000000
 C    7.2713117   -1.2321373    0.0000000  0.00   -0.0018689    0.0001480   -0.0000000
 C    5.8368103   -1.2229313    0.0000000  0.00   -0.0020186   -0.0012295   -0.0000000
 C    7.9204853   -2.4666842    0.0000000  0.00   -0.0004735   -0.0007867   -0.0000000
 C    5.0762861   -2.4070320    0.0000000  0.00    0.0011514    0.0014522   -0.0000000
 C    7.9539860    0.0000000    0.0000000  0.00    0.0021188   -0.0000000   -0.0000000
 C    5.1587585    0.0000000    0.0000000  0.00    0.0018567   -0.0000000   -0.0000000
 C    3.5677058   -4.7615733    0.0000000  0.00   -0.0028337   -0.0017985   -0.0000000
 C    2.8388391   -5.9637492    0.0000000  0.00    0.0016523    0.0029471   -0.0000000
 C    3.5201883   -7.2151542    0.0000000  0.00   -0.0011555   -0.0009250   -0.0000000
 C    3.6415549   -2.3627084    0.0000000  0.00   -0.0024190   -0.0034624   -0.0000000
 C    2.8649478   -3.5124364    0.0000000  0.00    0.0000413    0.0017403   -0.0000000
 C    3.7678785    0.0000000    0.0000000  0.00   -0.0036360   -0.0000000   -0.0000000
 C    2.9759937   -1.1325981    0.0000000  0.00    0.0007808    0.0000049   -0.0000000
 C    1.4159551   -5.8755438    0.0000000  0.00   -0.0009350   -0.0009025   -0.0000000
 C    0.7119330   -7.0951469    0.0000000  0.00   -0.0000567    0.0011152   -0.0000000
 C    2.7607989   -8.3872286    0.0000000  0.00    0.0003682    0.0020951   -0.0000000
 C    1.4048725   -8.3226929    0.0000000  0.00    0.0006874   -0.0008455   -0.0000000
 C    1.4273616   -3.3580987    0.0000000  0.00   -0.0013381   -0.0017413   -0.0000000
 C    0.7109313   -4.5966026    0.0000000  0.00    0.0000537    0.0009551   -0.0000000
 C    1.5849788   -0.8372056    0.0000000  0.00   -0.0005778   -0.0012024   -0.0000000
 C    0.7434367   -2.0129746    0.0000000  0.00   -0.0001333   -0.0013995   -0.0000000
 H    8.8643253   -7.3736837    0.0000000  0.00   -0.0000311    0.0031398   -0.0000000
 H    7.5702975   -9.4845279    0.0000000  0.00    0.0002042    0.0018769   -0.0000000
 H    5.1388629   -9.4413448    0.0000000  0.00   -0.0007570   -0.0021647   -0.0000000
 H    8.9225185   -4.9396091    0.0000000  0.00    0.0007906    0.0016937   -0.0000000
 H    9.0044368   -2.5051598    0.0000000  0.00    0.0003786   -0.0029845   -0.0000000
 H    9.0388017    0.0000000    0.0000000  0.00   -0.0000093   -0.0000000   -0.0000000
 H    3.2358292   -9.3565517    0.0000000  0.00    0.0027635    0.0001904   -0.0000000
 H    0.8654433   -9.2537216    0.0000000  0.00   -0.0002963   -0.0016602   -0.0000000
 C   -7.1188148    6.1101557    0.0000000  0.00   -0.0010983   -0.0038956   -0.0000000
 C   -5.6850575    6.0742565    0.0000000  0.00    0.0010089    0.0006188   -0.0000000
 C   -7.7804616    7.3547871    0.0000000  0.00   -0.0003396    0.0001533   -0.0000000
 C   -4.9618040    7.2833933    0.0000000  0.00   -0.0015480   -0.0019093   -0.0000000
 C   -7.0569025    8.5297707    0.0000000  0.00    0.0005064   -0.0015132   -0.0000000
 C   -5.6682520    8.5001601    0.0000000  0.00    0.0000287    0.0008338   -0.0000000
 C   -7.1932445    3.6727175    0.0000000  0.00   -0.0005951   -0.0013981   -0.0000000
 C   -5.7507653    3.6382118    0.0000000  0.00    0.0001137    0.0026162   -0.0000000
 C   -7.8383732    4.9061296    0.0000000  0.00    0.0009972    0.0011515   -0.0000000
 C   -4.9955144    4.8241412    0.0000000  0.00   -0.0011524   -0.0022603   -0.0000000
 C   -7.2713117    1.2321373    0.0000000  0.00    0.0018689   -0.0001480   -0.0000000
 C   -5.8368103    1.2229313    0.0000000  0.00    0.0020186    0.0012295   -0.0000000
 C   -7.9204853    2.4666842    0.0000000  0.00    0.0004735    0.0007867   -0.0000000
 C   -5.0762861    2.4070320    0.0000000  0.00   -0.0011514   -0.0014522   -0.0000000
 C   -7.9539860    0.0000000    0.0000000  0.00   -0.0021188   -0.0000000   -0.0000000
 C   -5.1587585    0.0000000    0.0000000  0.00   -0.0018567   -0.0000000   -0.0000000
 C   -3.5677058    4.7615733    0.0000000  0.00    0.0028337    0.0017985   -0.0000000
 C   -2.8388391    5.9637492    0.0000000  0.00   -0.0016523   -0.0029471   -0.0000000
 C   -3.5201883    7.2151542    0.0000000  0.00    0.0011555    0.0009250   -0.0000000
 C   -3.6415549    2.3627084    0.0000000  0.00    0.0024190    0.0034624   -0.0000000
 C   -2.8649478    3.5124364    0.0000000  0.00   -0.0000413   -0.0017403   -0.0000000
 C   -3.7678785    0.0000000    0.0000000  0.00    0.0036360   -0.0000000   -0.0000000
 C   -2.9759937    1.1325981    0.0000000  0.00   -0.0007808   -0.0000049   -0.0000000
 C   -1.4159551    5.8755438    0.0000000  0.00    0.0009350    0.0009025   -0.0000000
 C   -0.7119330    7.0951469    0.0000000  0.00    0.0000567   -0.0011152   -0.0000000
 C   -2.7607989    8.3872286    0.0000000  0.00   -0.0003682   -0.0020951   -0.0000000
 C   -1.4048725    8.3226929    0.0000000  0.00   -0.0006874    0.0008455   -0.0000000
 C   -1.4273616    3.3580987    0.0000000  0.00    0.0013381    0.0017413   -0.0000000
 C   -0.7109313    4.5966026    0.0000000  0.00   -0.0000537   -0.0009551   -0.0000000
 C   -1.5849788    0.8372056    0.0000000  0.00    0.0005778    0.0012024   -0.0000000
 C   -0.7434367    2.0129746    0.0000000  0.00    0.0001333    0.0013995   -0.0000000
 H   -8.8643253    7.3736837    0.0000000  0.00    0.0000311   -0.0031398   -0.0000000
 H   -7.5702975    9.4845279    0.0000000  0.00   -0.0002042   -0.0018769   -0.0000000
 H   -5.1388629    9.4413448    0.0000000  0.00    0.0007570    0.0021647   -0.0000000
 H   -8.9225185    4.9396091    0.0000000  0.00   -0.0007906   -0.0016937   -0.0000000
 H   -9.0044368    2.5051598    0.0000000  0.00   -0.0003786    0.0029845   -0.0000000
 H   -9.0388017    0.0000000    0.0000000  0.00    0.0000093   -0.0000000   -0.0000000
 H   -3.2358292    9.3565517    0.0000000  0.00   -0.0027635   -0.0001904   -0.0000000
 H   -0.8654433    9.2537216    0.0000000  0.00    0.0002963    0.0016602   -0.0000000
 C    7.1188148    6.1101557    0.0000000  0.00    0.0010983   -0.0038956   -0.0000000
 C    5.6850575    6.0742565    0.0000000  0.00   -0.0010089    0.0006188   -0.0000000
 C    7.7804616    7.3547871    0.0000000  0.00    0.0003396    0.0001533   -0.0000000
 C    4.9618040    7.2833933    0.0000000  0.00    0.0015480   -0.0019093   -0.0000000
 C    7.0569025    8.5297707    0.0000000  0.00   -0.0005064   -0.0015132   -0.0000000
 C    5.6682520    8.5001601    0.0000000  0.00   -0.0000287    0.0008338   -0.0000000
 C    7.1932445    3.6727175    0.0000000  0.00    0.0005951   -0.0013981   -0.0000000
 C    5.7507653    3.6382118    0.0000000  0.00   -0.0001137    0.0026162   -0.0000000
 C    7.8383732    4.9061296    0.0000000  0.00   -0.0009972    0.0011515   -0.0000000
 C    4.9955144    4.8241412    0.0000000  0.00    0.0011524   -0.0022603   -0.0000000
 C    7.2713117    1.2321373    0.0000000  0.00   -0.0018689   -0.0001480   -0.0000000
 C    5.8368103    1.2229313    0.0000000  0.00   -0.0020186    0.0012295   -0.0000000
 C    7.9204853    2.4666842    0.0000000  0.00   -0.0004735    0.0007867   -0.0000000
 C    5.0762861    2.4070320    0.0000000  0.00    0.0011514   -0.0014522   -0.0000000
 C    3.5677058    4.7615733    0.0000000  0.00   -0.0028337    0.0017985   -0.0000000
 C    2.8388391    5.9637492    0.0000000  0.00    0.0016523   -0.0029471   -0.0000000
 C    3.5201883    7.2151542    0.0000000  0.00   -0.0011555    0.0009250   -0.0000000
 C    3.6415549    2.3627084    0.0000000  0.00   -0.0024190    0.0034624   -0.0000000
 C    2.8649478    3.5124364    0.0000000  0.00    0.0000413   -0.0017403   -0.0000000
 C    2.9759937    1.1325981    0.0000000  0.00    0.0007808   -0.0000049   -0.0000000
 C    1.4159551    5.8755438    0.0000000  0.00   -0.0009350    0.0009025   -0.0000000
 C    0.7119330    7.0951469    0.0000000  0.00   -0.0000567   -0.0011152   -0.0000000
 C    2.7607989    8.3872286    0.0000000  0.00    0.0003682   -0.0020951   -0.0000000
 C    1.4048725    8.3226929    0.0000000  0.00    0.0006874    0.0008455   -0.0000000
 C    1.4273616    3.3580987    0.0000000  0.00   -0.0013381    0.0017413   -0.0000000
 C    0.7109313    4.5966026    0.0000000  0.00    0.0000537   -0.0009551   -0.0000000
 C    1.5849788    0.8372056    0.0000000  0.00   -0.0005778    0.0012024   -0.0000000
 C    0.7434367    2.0129746    0.0000000  0.00   -0.0001333    0.0013995   -0.0000000
 H    8.8643253    7.3736837    0.0000000  0.00   -0.0000311   -0.0031398   -0.0000000
 H    7.5702975    9.4845279    0.0000000  0.00    0.0002042   -0.0018769   -0.0000000
 H    5.1388629    9.4413448    0.0000000  0.00   -0.0007570    0.0021647   -0.0000000
 H    8.9225185    4.9396091    0.0000000  0.00    0.0007906   -0.0016937   -0.0000000
 H    9.0044368    2.5051598    0.0000000  0.00    0.0003786    0.0029845   -0.0000000
 H    3.2358292    9.3565517    0.0000000  0.00    0.0027635   -0.0001904   -0.0000000
 H    0.8654433    9.2537216    0.0000000  0.00   -0.0002963    0.0016602   -0.0000000
 C   -7.1188148   -6.1101557    0.0000000  0.00   -0.0010983    0.0038956   -0.0000000
 C   -5.6850575   -6.0742565    0.0000000  0.00    0.0010089   -0.0006188   -0.0000000
 C   -7.7804616   -7.3547871    0.0000000  0.00   -0.0003396   -0.0001533   -0.0000000
 C   -4.9618040   -7.2833933    0.0000000  0.00   -0.0015480    0.0019093   -0.0000000
 C   -7.0569025   -8.5297707    0.0000000  0.00    0.0005064    0.0015132   -0.0000000
 C   -5.6682520   -8.5001601    0.0000000  0.00    0.0000287   -0.0008338   -0.0000000
 C   -7.1932445   -3.6727175    0.0000000  0.00   -0.0005951    0.0013981   -0.0000000
 C   -5.7507653   -3.6382118    0.0000000  0.00    0.0001137   -0.0026162   -0.0000000
 C   -7.8383732   -4.9061296    0.0000000  0.00    0.0009972   -0.0011515   -0.0000000
 C   -4.9955144   -4.8241412    0.0000000  0.00   -0.0011524    0.0022603   -0.0000000
 C   -7.2713117   -1.2321373    0.0000000  0.00    0.0018689    0.0001480   -0.0000000
 C   -5.8368103   -1.2229313    0.0000000  0.00    0.0020186   -0.0012295   -0.0000000
 C   -7.9204853   -2.4666842    0.0000000  0.00    0.0004735   -0.0007867   -0.0000000
 C   -5.0762861   -2.4070320    0.0000000  0.00   -0.0011514    0.0014522   -0.0000000
 C   -3.5677058   -4.7615733    0.0000000  0.00    0.0028337   -0.0017985   -0.0000000
 C   -2.8388391   -5.9637492    0.0000000  0.00   -0.0016523    0.0029471   -0.0000000
 C   -3.5201883   -7.2151542    0.0000000  0.00    0.0011555   -0.0009250   -0.0000000
 C   -3.6415549   -2.3627084    0.0000000  0.00    0.0024190   -0.0034624   -0.0000000
 C   -2.8649478   -3.5124364    0.0000000  0.00   -0.0000413    0.0017403   -0.0000000
 C   -2.9759937   -1.1325981    0.0000000  0.00   -0.0007808    0.0000049   -0.0000000
 C   -1.4159551   -5.8755438    0.0000000  0.00    0.0009350   -0.0009025   -0.0000000
 C   -0.7119330   -7.0951469    0.0000000  0.00    0.0000567    0.0011152   -0.0000000
 C   -2.7607989   -8.3872286    0.0000000  0.00   -0.0003682    0.0020951   -0.0000000
 C   -1.4048725   -8.3226929    0.0000000  0.00   -0.0006874   -0.0008455   -0.0000000
 C   -1.4273616   -3.3580987    0.0000000  0.00    0.0013381   -0.0017413   -0.0000000
 C   -0.7109313   -4.5966026    0.0000000  0.00   -0.0000537    0.0009551   -0.0000000
 C   -1.5849788   -0.8372056    0.0000000  0.00    0.0005778   -0.0012024   -0.0000000
 C   -0.7434367   -2.0129746    0.0000000  0.00    0.0001333   -0.0013995   -0.0000000
 H   -8.8643253   -7.3736837    0.0000000  0.00    0.0000311    0.0031398   -0.0000000
 H   -7.5702975   -9.4845279    0.0000000  0.00   -0.0002042    0.0018769   -0.0000000
 H   -5.1388629   -9.4413448    0.0000000  0.00    0.0007570   -0.0021647   -0.0000000
 H   -8.9225185   -4.9396091    0.0000000  0.00   -0.0007906    0.0016937   -0.0000000
 H   -9.0044368   -2.5051598    0.0000000  0.00   -0.0003786   -0.0029845   -0.0000000
 H   -3.2358292   -9.3565517    0.0000000  0.00   -0.0027635    0.0001904   -0.0000000
 H   -0.8654433   -9.2537216    0.0000000  0.00    0.0002963   -0.0016602   -0.0000000
