148
 Energy =   -4513.2433466620
 C    7.1343655   -6.1213721    0.0000000  0.00   -0.0005927    0.0006410   -0.0000000
 C    5.7013684   -6.1229312    0.0000000  0.00   -0.0016605   -0.0001296   -0.0000000
 C    7.8212069   -7.3549762    0.0000000  0.00   -0.0004109    0.0006888   -0.0000000
 C    5.0033246   -7.3468971    0.0000000  0.00    0.0004030   -0.0003668   -0.0000000
 C    7.1239717   -8.5444454    0.0000000  0.00    0.0003615   -0.0009635   -0.0000000
 C    5.7323698   -8.5473668    0.0000000  0.00   -0.0002755   -0.0003230   -0.0000000
 C    7.1599331   -3.6720360    0.0000000  0.00    0.0006862   -0.0010292   -0.0000000
 C    5.7164929   -3.6708875    0.0000000  0.00   -0.0002993    0.0011703   -0.0000000
 C    7.8238020   -4.9040846    0.0000000  0.00   -0.0000921    0.0000011   -0.0000000
 C    4.9969232   -4.8795656    0.0000000  0.00   -0.0001694   -0.0002852   -0.0000000
 C    7.1909554   -1.2238862    0.0000000  0.00   -0.0007620   -0.0003027   -0.0000000
 C    5.7535610   -1.2257570    0.0000000  0.00    0.0010312   -0.0001001   -0.0000000
 C    7.8522123   -2.4618111    0.0000000  0.00    0.0002418    0.0006870   -0.0000000
 C    5.0211033   -2.4405388    0.0000000  0.00    0.0006400    0.0004327   -0.0000000
 C    7.8655526    0.0000000    0.0000000  0.00    0.0007291   -0.0000000   -0.0000000
 C    5.0492724    0.0000000    0.0000000  0.00   -0.0007553   -0.0000000   -0.0000000
 C    3.5685931   -4.8539322    0.0000000  0.00   -0.0006047    0.0002002   -0.0000000
 C    2.8528374   -6.0782840    0.0000000  0.00   -0.0002565   -0.0013665   -0.0000000
 C    3.5521882   -7.3168962    0.0000000  0.00    0.0004903   -0.0007541   -0.0000000
 C    3.5939991   -2.4214913    0.0000000  0.00   -0.0008251    0.0005720   -0.0000000
 C    2.8609542   -3.6224686    0.0000000  0.00   -0.0005336    0.0004119   -0.0000000
 C    3.6404424    0.0000000    0.0000000  0.00    0.0003252   -0.0000000   -0.0000000
 C    2.8881780   -1.1908117    0.0000000  0.00    0.0001171   -0.0003786   -0.0000000
 C    1.4278883   -6.0404869    0.0000000  0.00    0.0007941    0.0002646   -0.0000000
 C    0.7217015   -7.2648731    0.0000000  0.00   -0.0000545   -0.0001719   -0.0000000
 C    2.8074435   -8.4966161    0.0000000  0.00   -0.0003657   -0.0002330   -0.0000000
 C    1.4371600   -8.4678852    0.0000000  0.00   -0.0005849    0.0000321   -0.0000000
 C    1.4261104   -3.5637830    0.0000000  0.00    0.0005732    0.0003032   -0.0000000
 C    0.7198646   -4.7864694    0.0000000  0.00   -0.0008549   -0.0003522   -0.0000000
 C    1.4791323   -1.0842214    0.0000000  0.00   -0.0003588    0.0000427   -0.0000000
 C    0.7300242   -2.2719231    0.0000000  0.00    0.0001167    0.0001168   -0.0000000
 H    8.9053711   -7.3510933    0.0000000  0.00   -0.0019462    0.0000361   -0.0000000
 H    7.6591548   -9.4870532    0.0000000  0.00   -0.0006536    0.0007549   -0.0000000
 H    5.2227349   -9.4996948    0.0000000  0.00    0.0004515    0.0002164   -0.0000000
 H    8.9085016   -4.9154560    0.0000000  0.00    0.0006824    0.0004277   -0.0000000
 H    8.9365798   -2.4779394    0.0000000  0.00    0.0001337    0.0002193   -0.0000000
 H    8.9500144    0.0000000    0.0000000  0.00   -0.0008232   -0.0000000   -0.0000000
 H    3.3014130   -9.4569799    0.0000000  0.00   -0.0003482    0.0001220   -0.0000000
 H    0.9163112   -9.4126716    0.0000000  0.00    0.0006093    0.0003438   -0.0000000
 C   -7.1343655    6.1213721    0.0000000  0.00    0.0005927   -0.0006410   -0.0000000
 C   -5.7013684    6.1229312    0.0000000  0.00    0.0016605    0.0001296   -0.0000000
 C   -7.8212069    7.3549762    0.0000000  0.00    0.0004109   -0.0006888   -0.0000000
 C   -5.0033246    7.3468971    0.0000000  0.00   -0.0004030    0.0003668   -0.0000000
 C   -7.1239717    8.5444454    0.0000000  0.00   -0.0003615    0.0009635   -0.0000000
 C   -5.7323698    8.5473668    0.0000000  0.00    0.0002755    0.0003230   -0.0000000
 C   -7.1599331    3.6720360    0.0000000  0.00   -0.0006862    0.0010292   -0.0000000
 C   -5.7164929    3.6708875    0.0000000  0.00    0.0002993   -0.0011703   -0.0000000
 C   -7.8238020    4.9040846    0.0000000  0.00    0.0000921   -0.0000011   -0.0000000
 C   -4.9969232    4.8795656    0.0000000  0.00    0.0001694    0.0002852   -0.0000000
 C   -7.1909554    1.2238862    0.0000000  0.00    0.0007620    0.0003027   -0.0000000
 C   -5.7535610    1.2257570    0.0000000  0.00   -0.0010312    0.0001001   -0.0000000
 C   -7.8522123    2.4618111    0.0000000  0.00   -0.0002418   -0.0006870   -0.0000000
 C   -5.0211033    2.4405388    0.0000000  0.00   -0.0006400   -0.0004327   -0.0000000
 C   -7.8655526    0.0000000    0.0000000  0.00   -0.0007291   -0.0000000   -0.0000000
 C   -5.0492724    0.0000000    0.0000000  0.00    0.0007553   -0.0000000   -0.0000000
 C   -3.5685931    4.8539322    0.0000000  0.00    0.0006047   -0.0002002   -0.0000000
 C   -2.8528374    6.0782840    0.0000000  0.00    0.0002565    0.0013665   -0.0000000
 C   -3.5521882    7.3168962    0.0000000  0.00   -0.0004903    0.0007541   -0.0000000
 C   -3.5939991    2.4214913    0.0000000  0.00    0.0008251   -0.0005720   -0.0000000
 C   -2.8609542    3.6224686    0.0000000  0.00    0.0005336   -0.0004119   -0.0000000
 C   -3.6404424    0.0000000    0.0000000  0.00   -0.0003252   -0.0000000   -0.0000000
 C   -2.8881780    1.1908117    0.0000000  0.00   -0.0001171    0.0003786   -0.0000000
 C   -1.4278883    6.0404869    0.0000000  0.00   -0.0007941   -0.0002646   -0.0000000
 C   -0.7217015    7.2648731    0.0000000  0.00    0.0000545    0.0001719   -0.0000000
 C   -2.8074435    8.4966161    0.0000000  0.00    0.0003657    0.0002330   -0.0000000
 C   -1.4371600    8.4678852    0.0000000  0.00    0.0005849   -0.0000321   -0.0000000
 C   -1.4261104    3.5637830    0.0000000  0.00   -0.0005732   -0.0003032   -0.0000000
 C   -0.7198646    4.7864694    0.0000000  0.00    0.0008549    0.0003522   -0.0000000
 C   -1.4791323    1.0842214    0.0000000  0.00    0.0003588   -0.0000427   -0.0000000
 C   -0.7300242    2.2719231    0.0000000  0.00   -0.0001167   -0.0001168   -0.0000000
 H   -8.9053711    7.3510933    0.0000000  0.00    0.0019462   -0.0000361   -0.0000000
 H   -7.6591548    9.4870532    0.0000000  0.00    0.0006536   -0.0007549   -0.0000000
 H   -5.2227349    9.4996948    0.0000000  0.00   -0.0004515   -0.0002164   -0.0000000
 H   -8.9085016    4.9154560    0.0000000  0.00   -0.0006824   -0.0004277   -0.0000000
 H   -8.9365798    2.4779394    0.0000000  0.00   -0.0001337   -0.0002193   -0.0000000
 H   -8.9500144    0.0000000    0.0000000  0.00    0.0008232   -0.0000000   -0.0000000
 H   -3.3014130    9.4569799    0.0000000  0.00    0.0003482   -0.0001220   -0.0000000
 H   -0.9163112    9.4126716    0.0000000  0.00   -0.0006093   -0.0003438   -0.0000000
 C    7.1343655    6.1213721    0.0000000  0.00   -0.0005927   -0.0006410   -0.0000000
 C    5.7013684    6.1229312    0.0000000  0.00   -0.0016605    0.0001296   -0.0000000
 C    7.8212069    7.3549762    0.0000000  0.00   -0.0004109   -0.0006888   -0.0000000
 C    5.0033246    7.3468971    0.0000000  0.00    0.0004030    0.0003668   -0.0000000
 C    7.1239717    8.5444454    0.0000000  0.00    0.0003615    0.0009635   -0.0000000
 C    5.7323698    8.5473668    0.0000000  0.00   -0.0002755    0.0003230   -0.0000000
 C    7.1599331    3.6720360    0.0000000  0.00    0.0006862    0.0010292   -0.0000000
 C    5.7164929    3.6708875    0.0000000  0.00   -0.0002993   -0.0011703   -0.0000000
 C    7.8238020    4.9040846    0.0000000  0.00   -0.0000921   -0.0000011   -0.0000000
 C    4.9969232    4.8795656    0.0000000  0.00   -0.0001694    0.0002852   -0.0000000
 C    7.1909554    1.2238862    0.0000000  0.00   -0.0007620    0.0003027   -0.0000000
 C    5.7535610    1.2257570    0.0000000  0.00    0.0010312    0.0001001   -0.0000000
 C    7.8522123    2.4618111    0.0000000  0.00    0.0002418   -0.0006870   -0.0000000
 C    5.0211033    2.4405388    0.0000000  0.00    0.0006400   -0.0004327   -0.0000000
 C    3.5685931    4.8539322    0.0000000  0.00   -0.0006047   -0.0002002   -0.0000000
 C    2.8528374    6.0782840    0.0000000  0.00   -0.0002565    0.0013665   -0.0000000
 C    3.5521882    7.3168962    0.0000000  0.00    0.0004903    0.0007541   -0.0000000
 C    3.5939991    2.4214913    0.0000000  0.00   -0.0008251   -0.0005720   -0.0000000
 C    2.8609542    3.6224686    0.0000000  0.00   -0.0005336   -0.0004119   -0.0000000
 C    2.8881780    1.1908117    0.0000000  0.00    0.0001171    0.0003786   -0.0000000
 C    1.4278883    6.0404869    0.0000000  0.00    0.0007941   -0.0002646   -0.0000000
 C    0.7217015    7.2648731    0.0000000  0.00   -0.0000545    0.0001719   -0.0000000
 C    2.8074435    8.4966161    0.0000000  0.00   -0.0003657    0.0002330   -0.0000000
 C    1.4371600    8.4678852    0.0000000  0.00   -0.0005849   -0.0000321   -0.0000000
 C    1.4261104    3.5637830    0.0000000  0.00    0.0005732   -0.0003032   -0.0000000
 C    0.7198646    4.7864694    0.0000000  0.00   -0.0008549    0.0003522   -0.0000000
 C    1.4791323    1.0842214    0.0000000  0.00   -0.0003588   -0.0000427   -0.0000000
 C    0.7300242    2.2719231    0.0000000  0.00    0.0001167   -0.0001168   -0.0000000
 H    8.9053711    7.3510933    0.0000000  0.00   -0.0019462   -0.0000361   -0.0000000
 H    7.6591548    9.4870532    0.0000000  0.00   -0.0006536   -0.0007549   -0.0000000
 H    5.2227349    9.4996948    0.0000000  0.00    0.0004515   -0.0002164   -0.0000000
 H    8.9085016    4.9154560    0.0000000  0.00    0.0006824   -0.0004277   -0.0000000
 H    8.9365798    2.4779394    0.0000000  0.00    0.0001337   -0.0002193   -0.0000000
 H    3.3014130    9.4569799    0.0000000  0.00   -0.0003482   -0.0001220   -0.0000000
 H    0.9163112    9.4126716    0.0000000  0.00    0.0006093   -0.0003438   -0.0000000
 C   -7.1343655   -6.1213721    0.0000000  0.00    0.0005927    0.0006410   -0.0000000
 C   -5.7013684   -6.1229312    0.0000000  0.00    0.0016605   -0.0001296   -0.0000000
 C   -7.8212069   -7.3549762    0.0000000  0.00    0.0004109    0.0006888   -0.0000000
 C   -5.0033246   -7.3468971    0.0000000  0.00   -0.0004030   -0.0003668   -0.0000000
 C   -7.1239717   -8.5444454    0.0000000  0.00   -0.0003615   -0.0009635   -0.0000000
 C   -5.7323698   -8.5473668    0.0000000  0.00    0.0002755   -0.0003230   -0.0000000
 C   -7.1599331   -3.6720360    0.0000000  0.00   -0.0006862   -0.0010292   -0.0000000
 C   -5.7164929   -3.6708875    0.0000000  0.00    0.0002993    0.0011703   -0.0000000
 C   -7.8238020   -4.9040846    0.0000000  0.00    0.0000921    0.0000011   -0.0000000
 C   -4.9969232   -4.8795656    0.0000000  0.00    0.0001694   -0.0002852   -0.0000000
 C   -7.1909554   -1.2238862    0.0000000  0.00    0.0007620   -0.0003027   -0.0000000
 C   -5.7535610   -1.2257570    0.0000000  0.00   -0.0010312   -0.0001001   -0.0000000
 C   -7.8522123   -2.4618111    0.0000000  0.00   -0.0002418    0.0006870   -0.0000000
 C   -5.0211033   -2.4405388    0.0000000  0.00   -0.0006400    0.0004327   -0.0000000
 C   -3.5685931   -4.8539322    0.0000000  0.00    0.0006047    0.0002002   -0.0000000
 C   -2.8528374   -6.0782840    0.0000000  0.00    0.0002565   -0.0013665   -0.0000000
 C   -3.5521882   -7.3168962    0.0000000  0.00   -0.0004903   -0.0007541   -0.0000000
 C   -3.5939991   -2.4214913    0.0000000  0.00    0.0008251    0.0005720   -0.0000000
 C   -2.8609542   -3.6224686    0.0000000  0.00    0.0005336    0.0004119   -0.0000000
 C   -2.8881780   -1.1908117    0.0000000  0.00   -0.0001171   -0.0003786   -0.0000000
 C   -1.4278883   -6.0404869    0.0000000  0.00   -0.0007941    0.0002646   -0.0000000
 C   -0.7217015   -7.2648731    0.0000000  0.00    0.0000545   -0.0001719   -0.0000000
 C   -2.8074435   -8.4966161    0.0000000  0.00    0.0003657   -0.0002330   -0.0000000
 C   -1.4371600   -8.4678852    0.0000000  0.00    0.0005849    0.0000321   -0.0000000
 C   -1.4261104   -3.5637830    0.0000000  0.00   -0.0005732    0.0003032   -0.0000000
 C   -0.7198646   -4.7864694    0.0000000  0.00    0.0008549   -0.0003522   -0.0000000
 C   -1.4791323   -1.0842214    0.0000000  0.00    0.0003588    0.0000427   -0.0000000
 C   -0.7300242   -2.2719231    0.0000000  0.00   -0.0001167    0.0001168   -0.0000000
 H   -8.9053711   -7.3510933    0.0000000  0.00    0.0019462    0.0000361   -0.0000000
 H   -7.6591548   -9.4870532    0.0000000  0.00    0.0006536    0.0007549   -0.0000000
 H   -5.2227349   -9.4996948    0.0000000  0.00   -0.0004515    0.0002164   -0.0000000
 H   -8.9085016   -4.9154560    0.0000000  0.00   -0.0006824    0.0004277   -0.0000000
 H   -8.9365798   -2.4779394    0.0000000  0.00   -0.0001337    0.0002193   -0.0000000
 H   -3.3014130   -9.4569799    0.0000000  0.00    0.0003482    0.0001220   -0.0000000
 H   -0.9163112   -9.4126716    0.0000000  0.00   -0.0006093    0.0003438   -0.0000000
