148
 Energy =   -4513.3623312600
 C    7.1105149   -6.1036402    0.0000000  0.00   -0.0000131   -0.0005168   -0.0000000
 C    5.6752447   -6.0652121    0.0000000  0.00    0.0009183   -0.0013619   -0.0000000
 C    7.7673572   -7.3523261    0.0000000  0.00    0.0011616    0.0009355   -0.0000000
 C    4.9523016   -7.2747290    0.0000000  0.00    0.0003223   -0.0001184   -0.0000000
 C    7.0432129   -8.5270442    0.0000000  0.00   -0.0008916   -0.0006634   -0.0000000
 C    5.6550958   -8.4957968    0.0000000  0.00   -0.0004917   -0.0006709   -0.0000000
 C    7.1954530   -3.6658528    0.0000000  0.00   -0.0027172    0.0004643   -0.0000000
 C    5.7503509   -3.6316814    0.0000000  0.00    0.0008631   -0.0017547   -0.0000000
 C    7.8339738   -4.9079711    0.0000000  0.00    0.0008242   -0.0011784   -0.0000000
 C    4.9912365   -4.8151922    0.0000000  0.00   -0.0012440    0.0023092   -0.0000000
 C    7.2873950   -1.2286139    0.0000000  0.00   -0.0005111   -0.0005147   -0.0000000
 C    5.8519487   -1.2197193    0.0000000  0.00    0.0014864   -0.0000842   -0.0000000
 C    7.9267627   -2.4712522    0.0000000  0.00    0.0005597   -0.0001531   -0.0000000
 C    5.0801537   -2.3987763    0.0000000  0.00   -0.0021047    0.0013352   -0.0000000
 C    7.9668757    0.0000000    0.0000000  0.00   -0.0001481   -0.0000000   -0.0000000
 C    5.1751100    0.0000000    0.0000000  0.00   -0.0045036   -0.0000000   -0.0000000
 C    3.5603586   -4.7471368    0.0000000  0.00    0.0007475   -0.0020569   -0.0000000
 C    2.8322289   -5.9537745    0.0000000  0.00    0.0000845    0.0009550   -0.0000000
 C    3.5143478   -7.2058473    0.0000000  0.00    0.0004913   -0.0001232   -0.0000000
 C    3.6417142   -2.3463872    0.0000000  0.00    0.0019350   -0.0018823   -0.0000000
 C    2.8586452   -3.5042258    0.0000000  0.00   -0.0006610    0.0020472   -0.0000000
 C    3.7847319    0.0000000    0.0000000  0.00    0.0041743   -0.0000000   -0.0000000
 C    2.9851487   -1.1203036    0.0000000  0.00   -0.0010847    0.0000499   -0.0000000
 C    1.4138641   -5.8666499    0.0000000  0.00   -0.0000546    0.0009288   -0.0000000
 C    0.7097097   -7.0892784    0.0000000  0.00    0.0009308    0.0004519   -0.0000000
 C    2.7571028   -8.3816585    0.0000000  0.00    0.0000429    0.0006240   -0.0000000
 C    1.4033773   -8.3184146    0.0000000  0.00   -0.0002514    0.0001701   -0.0000000
 C    1.4208329   -3.3467079    0.0000000  0.00   -0.0002643   -0.0009383   -0.0000000
 C    0.7089728   -4.5882487    0.0000000  0.00    0.0019399    0.0000713   -0.0000000
 C    1.5832140   -0.7800615    0.0000000  0.00    0.0008472   -0.0007497   -0.0000000
 C    0.7233570   -2.0050088    0.0000000  0.00    0.0007128   -0.0007797   -0.0000000
 H    8.8512315   -7.3720128    0.0000000  0.00    0.0000863   -0.0010683   -0.0000000
 H    7.5565782   -9.4817481    0.0000000  0.00   -0.0007095    0.0011004   -0.0000000
 H    5.1239689   -9.4356159    0.0000000  0.00    0.0001508   -0.0013820   -0.0000000
 H    8.9179520   -4.9462143    0.0000000  0.00   -0.0004425    0.0009227   -0.0000000
 H    9.0102985   -2.5191527    0.0000000  0.00   -0.0001429    0.0015484   -0.0000000
 H    9.0516324    0.0000000    0.0000000  0.00   -0.0006093   -0.0000000   -0.0000000
 H    3.2351347   -9.3490456    0.0000000  0.00   -0.0005076    0.0000425   -0.0000000
 H    0.8641798   -9.2495288    0.0000000  0.00   -0.0002110   -0.0002398   -0.0000000
 C   -7.1105149    6.1036402    0.0000000  0.00    0.0000131    0.0005168   -0.0000000
 C   -5.6752447    6.0652121    0.0000000  0.00   -0.0009183    0.0013619   -0.0000000
 C   -7.7673572    7.3523261    0.0000000  0.00   -0.0011616   -0.0009355   -0.0000000
 C   -4.9523016    7.2747290    0.0000000  0.00   -0.0003223    0.0001184   -0.0000000
 C   -7.0432129    8.5270442    0.0000000  0.00    0.0008916    0.0006634   -0.0000000
 C   -5.6550958    8.4957968    0.0000000  0.00    0.0004917    0.0006709   -0.0000000
 C   -7.1954530    3.6658528    0.0000000  0.00    0.0027172   -0.0004643   -0.0000000
 C   -5.7503509    3.6316814    0.0000000  0.00   -0.0008631    0.0017547   -0.0000000
 C   -7.8339738    4.9079711    0.0000000  0.00   -0.0008242    0.0011784   -0.0000000
 C   -4.9912365    4.8151922    0.0000000  0.00    0.0012440   -0.0023092   -0.0000000
 C   -7.2873950    1.2286139    0.0000000  0.00    0.0005111    0.0005147   -0.0000000
 C   -5.8519487    1.2197193    0.0000000  0.00   -0.0014864    0.0000842   -0.0000000
 C   -7.9267627    2.4712522    0.0000000  0.00   -0.0005597    0.0001531   -0.0000000
 C   -5.0801537    2.3987763    0.0000000  0.00    0.0021047   -0.0013352   -0.0000000
 C   -7.9668757    0.0000000    0.0000000  0.00    0.0001481   -0.0000000   -0.0000000
 C   -5.1751100    0.0000000    0.0000000  0.00    0.0045036   -0.0000000   -0.0000000
 C   -3.5603586    4.7471368    0.0000000  0.00   -0.0007475    0.0020569   -0.0000000
 C   -2.8322289    5.9537745    0.0000000  0.00   -0.0000845   -0.0009550   -0.0000000
 C   -3.5143478    7.2058473    0.0000000  0.00   -0.0004913    0.0001232   -0.0000000
 C   -3.6417142    2.3463872    0.0000000  0.00   -0.0019350    0.0018823   -0.0000000
 C   -2.8586452    3.5042258    0.0000000  0.00    0.0006610   -0.0020472   -0.0000000
 C   -3.7847319    0.0000000    0.0000000  0.00   -0.0041743   -0.0000000   -0.0000000
 C   -2.9851487    1.1203036    0.0000000  0.00    0.0010847   -0.0000499   -0.0000000
 C   -1.4138641    5.8666499    0.0000000  0.00    0.0000546   -0.0009288   -0.0000000
 C   -0.7097097    7.0892784    0.0000000  0.00   -0.0009308   -0.0004519   -0.0000000
 C   -2.7571028    8.3816585    0.0000000  0.00   -0.0000429   -0.0006240   -0.0000000
 C   -1.4033773    8.3184146    0.0000000  0.00    0.0002514   -0.0001701   -0.0000000
 C   -1.4208329    3.3467079    0.0000000  0.00    0.0002643    0.0009383   -0.0000000
 C   -0.7089728    4.5882487    0.0000000  0.00   -0.0019399   -0.0000713   -0.0000000
 C   -1.5832140    0.7800615    0.0000000  0.00   -0.0008472    0.0007497   -0.0000000
 C   -0.7233570    2.0050088    0.0000000  0.00   -0.0007128    0.0007797   -0.0000000
 H   -8.8512315    7.3720128    0.0000000  0.00   -0.0000863    0.0010683   -0.0000000
 H   -7.5565782    9.4817481    0.0000000  0.00    0.0007095   -0.0011004   -0.0000000
 H   -5.1239689    9.4356159    0.0000000  0.00   -0.0001508    0.0013820   -0.0000000
 H   -8.9179520    4.9462143    0.0000000  0.00    0.0004425   -0.0009227   -0.0000000
 H   -9.0102985    2.5191527    0.0000000  0.00    0.0001429   -0.0015484   -0.0000000
 H   -9.0516324    0.0000000    0.0000000  0.00    0.0006093   -0.0000000   -0.0000000
 H   -3.2351347    9.3490456    0.0000000  0.00    0.0005076   -0.0000425   -0.0000000
 H   -0.8641798    9.2495288    0.0000000  0.00    0.0002110    0.0002398   -0.0000000
 C    7.1105149    6.1036402    0.0000000  0.00   -0.0000131    0.0005168   -0.0000000
 C    5.6752447    6.0652121    0.0000000  0.00    0.0009183    0.0013619   -0.0000000
 C    7.7673572    7.3523261    0.0000000  0.00    0.0011616   -0.0009355   -0.0000000
 C    4.9523016    7.2747290    0.0000000  0.00    0.0003223    0.0001184   -0.0000000
 C    7.0432129    8.5270442    0.0000000  0.00   -0.0008916    0.0006634   -0.0000000
 C    5.6550958    8.4957968    0.0000000  0.00   -0.0004917    0.0006709   -0.0000000
 C    7.1954530    3.6658528    0.0000000  0.00   -0.0027172   -0.0004643   -0.0000000
 C    5.7503509    3.6316814    0.0000000  0.00    0.0008631    0.0017547   -0.0000000
 C    7.8339738    4.9079711    0.0000000  0.00    0.0008242    0.0011784   -0.0000000
 C    4.9912365    4.8151922    0.0000000  0.00   -0.0012440   -0.0023092   -0.0000000
 C    7.2873950    1.2286139    0.0000000  0.00   -0.0005111    0.0005147   -0.0000000
 C    5.8519487    1.2197193    0.0000000  0.00    0.0014864    0.0000842   -0.0000000
 C    7.9267627    2.4712522    0.0000000  0.00    0.0005597    0.0001531   -0.0000000
 C    5.0801537    2.3987763    0.0000000  0.00   -0.0021047   -0.0013352   -0.0000000
 C    3.5603586    4.7471368    0.0000000  0.00    0.0007475    0.0020569   -0.0000000
 C    2.8322289    5.9537745    0.0000000  0.00    0.0000845   -0.0009550   -0.0000000
 C    3.5143478    7.2058473    0.0000000  0.00    0.0004913    0.0001232   -0.0000000
 C    3.6417142    2.3463872    0.0000000  0.00    0.0019350    0.0018823   -0.0000000
 C    2.8586452    3.5042258    0.0000000  0.00   -0.0006610   -0.0020472   -0.0000000
 C    2.9851487    1.1203036    0.0000000  0.00   -0.0010847   -0.0000499   -0.0000000
 C    1.4138641    5.8666499    0.0000000  0.00   -0.0000546   -0.0009288   -0.0000000
 C    0.7097097    7.0892784    0.0000000  0.00    0.0009308   -0.0004519   -0.0000000
 C    2.7571028    8.3816585    0.0000000  0.00    0.0000429   -0.0006240   -0.0000000
 C    1.4033773    8.3184146    0.0000000  0.00   -0.0002514   -0.0001701   -0.0000000
 C    1.4208329    3.3467079    0.0000000  0.00   -0.0002643    0.0009383   -0.0000000
 C    0.7089728    4.5882487    0.0000000  0.00    0.0019399   -0.0000713   -0.0000000
 C    1.5832140    0.7800615    0.0000000  0.00    0.0008472    0.0007497   -0.0000000
 C    0.7233570    2.0050088    0.0000000  0.00    0.0007128    0.0007797   -0.0000000
 H    8.8512315    7.3720128    0.0000000  0.00    0.0000863    0.0010683   -0.0000000
 H    7.5565782    9.4817481    0.0000000  0.00   -0.0007095   -0.0011004   -0.0000000
 H    5.1239689    9.4356159    0.0000000  0.00    0.0001508    0.0013820   -0.0000000
 H    8.9179520    4.9462143    0.0000000  0.00   -0.0004425   -0.0009227   -0.0000000
 H    9.0102985    2.5191527    0.0000000  0.00   -0.0001429   -0.0015484   -0.0000000
 H    3.2351347    9.3490456    0.0000000  0.00   -0.0005076   -0.0000425   -0.0000000
 H    0.8641798    9.2495288    0.0000000  0.00   -0.0002110    0.0002398   -0.0000000
 C   -7.1105149   -6.1036402    0.0000000  0.00    0.0000131   -0.0005168   -0.0000000
 C   -5.6752447   -6.0652121    0.0000000  0.00   -0.0009183   -0.0013619   -0.0000000
 C   -7.7673572   -7.3523261    0.0000000  0.00   -0.0011616    0.0009355   -0.0000000
 C   -4.9523016   -7.2747290    0.0000000  0.00   -0.0003223   -0.0001184   -0.0000000
 C   -7.0432129   -8.5270442    0.0000000  0.00    0.0008916   -0.0006634   -0.0000000
 C   -5.6550958   -8.4957968    0.0000000  0.00    0.0004917   -0.0006709   -0.0000000
 C   -7.1954530   -3.6658528    0.0000000  0.00    0.0027172    0.0004643   -0.0000000
 C   -5.7503509   -3.6316814    0.0000000  0.00   -0.0008631   -0.0017547   -0.0000000
 C   -7.8339738   -4.9079711    0.0000000  0.00   -0.0008242   -0.0011784   -0.0000000
 C   -4.9912365   -4.8151922    0.0000000  0.00    0.0012440    0.0023092   -0.0000000
 C   -7.2873950   -1.2286139    0.0000000  0.00    0.0005111   -0.0005147   -0.0000000
 C   -5.8519487   -1.2197193    0.0000000  0.00   -0.0014864   -0.0000842   -0.0000000
 C   -7.9267627   -2.4712522    0.0000000  0.00   -0.0005597   -0.0001531   -0.0000000
 C   -5.0801537   -2.3987763    0.0000000  0.00    0.0021047    0.0013352   -0.0000000
 C   -3.5603586   -4.7471368    0.0000000  0.00   -0.0007475   -0.0020569   -0.0000000
 C   -2.8322289   -5.9537745    0.0000000  0.00   -0.0000845    0.0009550   -0.0000000
 C   -3.5143478   -7.2058473    0.0000000  0.00   -0.0004913   -0.0001232   -0.0000000
 C   -3.6417142   -2.3463872    0.0000000  0.00   -0.0019350   -0.0018823   -0.0000000
 C   -2.8586452   -3.5042258    0.0000000  0.00    0.0006610    0.0020472   -0.0000000
 C   -2.9851487   -1.1203036    0.0000000  0.00    0.0010847    0.0000499   -0.0000000
 C   -1.4138641   -5.8666499    0.0000000  0.00    0.0000546    0.0009288   -0.0000000
 C   -0.7097097   -7.0892784    0.0000000  0.00   -0.0009308    0.0004519   -0.0000000
 C   -2.7571028   -8.3816585    0.0000000  0.00   -0.0000429    0.0006240   -0.0000000
 C   -1.4033773   -8.3184146    0.0000000  0.00    0.0002514    0.0001701   -0.0000000
 C   -1.4208329   -3.3467079    0.0000000  0.00    0.0002643   -0.0009383   -0.0000000
 C   -0.7089728   -4.5882487    0.0000000  0.00   -0.0019399    0.0000713   -0.0000000
 C   -1.5832140   -0.7800615    0.0000000  0.00   -0.0008472   -0.0007497   -0.0000000
 C   -0.7233570   -2.0050088    0.0000000  0.00   -0.0007128   -0.0007797   -0.0000000
 H   -8.8512315   -7.3720128    0.0000000  0.00   -0.0000863   -0.0010683   -0.0000000
 H   -7.5565782   -9.4817481    0.0000000  0.00    0.0007095    0.0011004   -0.0000000
 H   -5.1239689   -9.4356159    0.0000000  0.00   -0.0001508   -0.0013820   -0.0000000
 H   -8.9179520   -4.9462143    0.0000000  0.00    0.0004425    0.0009227   -0.0000000
 H   -9.0102985   -2.5191527    0.0000000  0.00    0.0001429    0.0015484   -0.0000000
 H   -3.2351347   -9.3490456    0.0000000  0.00    0.0005076    0.0000425   -0.0000000
 H   -0.8641798   -9.2495288    0.0000000  0.00    0.0002110   -0.0002398   -0.0000000
