148
 Energy =   -4513.0372902630
 C    7.1125391   -6.0922975    0.0000000  0.00   -0.0009652   -0.0018632   -0.0000000
 C    5.6796925   -6.0575402    0.0000000  0.00   -0.0004208    0.0012696   -0.0000000
 C    7.7824896   -7.3360711    0.0000000  0.00   -0.0006467   -0.0004548   -0.0000000
 C    4.9626565   -7.2680692    0.0000000  0.00   -0.0004376    0.0001879   -0.0000000
 C    7.0637738   -8.5064737    0.0000000  0.00   -0.0002487    0.0015523   -0.0000000
 C    5.6739847   -8.4789594    0.0000000  0.00   -0.0002607   -0.0002314   -0.0000000
 C    7.1901203   -3.6624052    0.0000000  0.00    0.0010884    0.0007155   -0.0000000
 C    5.7485742   -3.6307751    0.0000000  0.00   -0.0005341    0.0007146   -0.0000000
 C    7.8357081   -4.9005819    0.0000000  0.00    0.0008568    0.0014258   -0.0000000
 C    4.9936333   -4.8119248    0.0000000  0.00    0.0003281   -0.0000627   -0.0000000
 C    7.2806204   -1.2294972    0.0000000  0.00   -0.0003349    0.0025335   -0.0000000
 C    5.8432790   -1.2217154    0.0000000  0.00   -0.0009794   -0.0008268   -0.0000000
 C    7.9242789   -2.4698024    0.0000000  0.00   -0.0000289   -0.0023694   -0.0000000
 C    5.0771772   -2.3993590    0.0000000  0.00    0.0005893   -0.0004359   -0.0000000
 C    7.9615503    0.0000000    0.0000000  0.00   -0.0017166   -0.0000000   -0.0000000
 C    5.1621720    0.0000000    0.0000000  0.00    0.0010076   -0.0000000   -0.0000000
 C    3.5629246   -4.7499874    0.0000000  0.00   -0.0004405   -0.0007089   -0.0000000
 C    2.8351909   -5.9521161    0.0000000  0.00   -0.0006554    0.0007438   -0.0000000
 C    3.5195795   -7.2048493    0.0000000  0.00    0.0006325   -0.0000988   -0.0000000
 C    3.6417474   -2.3544066    0.0000000  0.00   -0.0001626    0.0003791   -0.0000000
 C    2.8629849   -3.5050802    0.0000000  0.00   -0.0005238   -0.0001935   -0.0000000
 C    3.7715803    0.0000000    0.0000000  0.00   -0.0001668   -0.0000000   -0.0000000
 C    2.9785718   -1.1299118    0.0000000  0.00    0.0005647    0.0006663   -0.0000000
 C    1.4149425   -5.8641763    0.0000000  0.00   -0.0001051    0.0009160   -0.0000000
 C    0.7129386   -7.0873486    0.0000000  0.00   -0.0011612    0.0001392   -0.0000000
 C    2.7669940   -8.3768265    0.0000000  0.00   -0.0004895    0.0003320   -0.0000000
 C    1.4080283   -8.3082658    0.0000000  0.00    0.0003552   -0.0004891   -0.0000000
 C    1.4256156   -3.3512764    0.0000000  0.00   -0.0000849    0.0008517   -0.0000000
 C    0.7123883   -4.5875845    0.0000000  0.00    0.0013861   -0.0008325   -0.0000000
 C    1.5827549   -0.8307311    0.0000000  0.00   -0.0001451   -0.0003949   -0.0000000
 C    0.7438455   -2.0034108    0.0000000  0.00   -0.0002439    0.0004354   -0.0000000
 H    8.8757085   -7.3406729    0.0000000  0.00    0.0001750    0.0003238   -0.0000000
 H    7.5747901   -9.4728563    0.0000000  0.00    0.0002234   -0.0011857   -0.0000000
 H    5.1528356   -9.4409582    0.0000000  0.00    0.0001180    0.0002062   -0.0000000
 H    8.9278549   -4.9389058    0.0000000  0.00   -0.0002257    0.0010405   -0.0000000
 H    9.0106763   -2.5248256    0.0000000  0.00    0.0000738   -0.0003437   -0.0000000
 H    9.0458676    0.0000000    0.0000000  0.00   -0.0002745   -0.0000000   -0.0000000
 H    3.2422136   -9.3544222    0.0000000  0.00    0.0005038    0.0004720   -0.0000000
 H    0.8729871   -9.2433601    0.0000000  0.00    0.0003179   -0.0000569   -0.0000000
 C   -7.1125391    6.0922975    0.0000000  0.00    0.0009652    0.0018632   -0.0000000
 C   -5.6796925    6.0575402    0.0000000  0.00    0.0004208   -0.0012696   -0.0000000
 C   -7.7824896    7.3360711    0.0000000  0.00    0.0006467    0.0004548   -0.0000000
 C   -4.9626565    7.2680692    0.0000000  0.00    0.0004376   -0.0001879   -0.0000000
 C   -7.0637738    8.5064737    0.0000000  0.00    0.0002487   -0.0015523   -0.0000000
 C   -5.6739847    8.4789594    0.0000000  0.00    0.0002607    0.0002314   -0.0000000
 C   -7.1901203    3.6624052    0.0000000  0.00   -0.0010884   -0.0007155   -0.0000000
 C   -5.7485742    3.6307751    0.0000000  0.00    0.0005341   -0.0007146   -0.0000000
 C   -7.8357081    4.9005819    0.0000000  0.00   -0.0008568   -0.0014258   -0.0000000
 C   -4.9936333    4.8119248    0.0000000  0.00   -0.0003281    0.0000627   -0.0000000
 C   -7.2806204    1.2294972    0.0000000  0.00    0.0003349   -0.0025335   -0.0000000
 C   -5.8432790    1.2217154    0.0000000  0.00    0.0009794    0.0008268   -0.0000000
 C   -7.9242789    2.4698024    0.0000000  0.00    0.0000289    0.0023694   -0.0000000
 C   -5.0771772    2.3993590    0.0000000  0.00   -0.0005893    0.0004359   -0.0000000
 C   -7.9615503    0.0000000    0.0000000  0.00    0.0017166   -0.0000000   -0.0000000
 C   -5.1621720    0.0000000    0.0000000  0.00   -0.0010076   -0.0000000   -0.0000000
 C   -3.5629246    4.7499874    0.0000000  0.00    0.0004405    0.0007089   -0.0000000
 C   -2.8351909    5.9521161    0.0000000  0.00    0.0006554   -0.0007438   -0.0000000
 C   -3.5195795    7.2048493    0.0000000  0.00   -0.0006325    0.0000988   -0.0000000
 C   -3.6417474    2.3544066    0.0000000  0.00    0.0001626   -0.0003791   -0.0000000
 C   -2.8629849    3.5050802    0.0000000  0.00    0.0005238    0.0001935   -0.0000000
 C   -3.7715803    0.0000000    0.0000000  0.00    0.0001668   -0.0000000   -0.0000000
 C   -2.9785718    1.1299118    0.0000000  0.00   -0.0005647   -0.0006663   -0.0000000
 C   -1.4149425    5.8641763    0.0000000  0.00    0.0001051   -0.0009160   -0.0000000
 C   -0.7129386    7.0873486    0.0000000  0.00    0.0011612   -0.0001392   -0.0000000
 C   -2.7669940    8.3768265    0.0000000  0.00    0.0004895   -0.0003320   -0.0000000
 C   -1.4080283    8.3082658    0.0000000  0.00   -0.0003552    0.0004891   -0.0000000
 C   -1.4256156    3.3512764    0.0000000  0.00    0.0000849   -0.0008517   -0.0000000
 C   -0.7123883    4.5875845    0.0000000  0.00   -0.0013861    0.0008325   -0.0000000
 C   -1.5827549    0.8307311    0.0000000  0.00    0.0001451    0.0003949   -0.0000000
 C   -0.7438455    2.0034108    0.0000000  0.00    0.0002439   -0.0004354   -0.0000000
 H   -8.8757085    7.3406729    0.0000000  0.00   -0.0001750   -0.0003238   -0.0000000
 H   -7.5747901    9.4728563    0.0000000  0.00   -0.0002234    0.0011857   -0.0000000
 H   -5.1528356    9.4409582    0.0000000  0.00   -0.0001180   -0.0002062   -0.0000000
 H   -8.9278549    4.9389058    0.0000000  0.00    0.0002257   -0.0010405   -0.0000000
 H   -9.0106763    2.5248256    0.0000000  0.00   -0.0000738    0.0003437   -0.0000000
 H   -9.0458676    0.0000000    0.0000000  0.00    0.0002745   -0.0000000   -0.0000000
 H   -3.2422136    9.3544222    0.0000000  0.00   -0.0005038   -0.0004720   -0.0000000
 H   -0.8729871    9.2433601    0.0000000  0.00   -0.0003179    0.0000569   -0.0000000
 C    7.1125391    6.0922975    0.0000000  0.00   -0.0009652    0.0018632   -0.0000000
 C    5.6796925    6.0575402    0.0000000  0.00   -0.0004208   -0.0012696   -0.0000000
 C    7.7824896    7.3360711    0.0000000  0.00   -0.0006467    0.0004548   -0.0000000
 C    4.9626565    7.2680692    0.0000000  0.00   -0.0004376   -0.0001879   -0.0000000
 C    7.0637738    8.5064737    0.0000000  0.00   -0.0002487   -0.0015523   -0.0000000
 C    5.6739847    8.4789594    0.0000000  0.00   -0.0002607    0.0002314   -0.0000000
 C    7.1901203    3.6624052    0.0000000  0.00    0.0010884   -0.0007155   -0.0000000
 C    5.7485742    3.6307751    0.0000000  0.00   -0.0005341   -0.0007146   -0.0000000
 C    7.8357081    4.9005819    0.0000000  0.00    0.0008568   -0.0014258   -0.0000000
 C    4.9936333    4.8119248    0.0000000  0.00    0.0003281    0.0000627   -0.0000000
 C    7.2806204    1.2294972    0.0000000  0.00   -0.0003349   -0.0025335   -0.0000000
 C    5.8432790    1.2217154    0.0000000  0.00   -0.0009794    0.0008268   -0.0000000
 C    7.9242789    2.4698024    0.0000000  0.00   -0.0000289    0.0023694   -0.0000000
 C    5.0771772    2.3993590    0.0000000  0.00    0.0005893    0.0004359   -0.0000000
 C    3.5629246    4.7499874    0.0000000  0.00   -0.0004405    0.0007089   -0.0000000
 C    2.8351909    5.9521161    0.0000000  0.00   -0.0006554   -0.0007438   -0.0000000
 C    3.5195795    7.2048493    0.0000000  0.00    0.0006325    0.0000988   -0.0000000
 C    3.6417474    2.3544066    0.0000000  0.00   -0.0001626   -0.0003791   -0.0000000
 C    2.8629849    3.5050802    0.0000000  0.00   -0.0005238    0.0001935   -0.0000000
 C    2.9785718    1.1299118    0.0000000  0.00    0.0005647   -0.0006663   -0.0000000
 C    1.4149425    5.8641763    0.0000000  0.00   -0.0001051   -0.0009160   -0.0000000
 C    0.7129386    7.0873486    0.0000000  0.00   -0.0011612   -0.0001392   -0.0000000
 C    2.7669940    8.3768265    0.0000000  0.00   -0.0004895   -0.0003320   -0.0000000
 C    1.4080283    8.3082658    0.0000000  0.00    0.0003552    0.0004891   -0.0000000
 C    1.4256156    3.3512764    0.0000000  0.00   -0.0000849   -0.0008517   -0.0000000
 C    0.7123883    4.5875845    0.0000000  0.00    0.0013861    0.0008325   -0.0000000
 C    1.5827549    0.8307311    0.0000000  0.00   -0.0001451    0.0003949   -0.0000000
 C    0.7438455    2.0034108    0.0000000  0.00   -0.0002439   -0.0004354   -0.0000000
 H    8.8757085    7.3406729    0.0000000  0.00    0.0001750   -0.0003238   -0.0000000
 H    7.5747901    9.4728563    0.0000000  0.00    0.0002234    0.0011857   -0.0000000
 H    5.1528356    9.4409582    0.0000000  0.00    0.0001180   -0.0002062   -0.0000000
 H    8.9278549    4.9389058    0.0000000  0.00   -0.0002257   -0.0010405   -0.0000000
 H    9.0106763    2.5248256    0.0000000  0.00    0.0000738    0.0003437   -0.0000000
 H    3.2422136    9.3544222    0.0000000  0.00    0.0005038   -0.0004720   -0.0000000
 H    0.8729871    9.2433601    0.0000000  0.00    0.0003179    0.0000569   -0.0000000
 C   -7.1125391   -6.0922975    0.0000000  0.00    0.0009652   -0.0018632   -0.0000000
 C   -5.6796925   -6.0575402    0.0000000  0.00    0.0004208    0.0012696   -0.0000000
 C   -7.7824896   -7.3360711    0.0000000  0.00    0.0006467   -0.0004548   -0.0000000
 C   -4.9626565   -7.2680692    0.0000000  0.00    0.0004376    0.0001879   -0.0000000
 C   -7.0637738   -8.5064737    0.0000000  0.00    0.0002487    0.0015523   -0.0000000
 C   -5.6739847   -8.4789594    0.0000000  0.00    0.0002607   -0.0002314   -0.0000000
 C   -7.1901203   -3.6624052    0.0000000  0.00   -0.0010884    0.0007155   -0.0000000
 C   -5.7485742   -3.6307751    0.0000000  0.00    0.0005341    0.0007146   -0.0000000
 C   -7.8357081   -4.9005819    0.0000000  0.00   -0.0008568    0.0014258   -0.0000000
 C   -4.9936333   -4.8119248    0.0000000  0.00   -0.0003281   -0.0000627   -0.0000000
 C   -7.2806204   -1.2294972    0.0000000  0.00    0.0003349    0.0025335   -0.0000000
 C   -5.8432790   -1.2217154    0.0000000  0.00    0.0009794   -0.0008268   -0.0000000
 C   -7.9242789   -2.4698024    0.0000000  0.00    0.0000289   -0.0023694   -0.0000000
 C   -5.0771772   -2.3993590    0.0000000  0.00   -0.0005893   -0.0004359   -0.0000000
 C   -3.5629246   -4.7499874    0.0000000  0.00    0.0004405   -0.0007089   -0.0000000
 C   -2.8351909   -5.9521161    0.0000000  0.00    0.0006554    0.0007438   -0.0000000
 C   -3.5195795   -7.2048493    0.0000000  0.00   -0.0006325   -0.0000988   -0.0000000
 C   -3.6417474   -2.3544066    0.0000000  0.00    0.0001626    0.0003791   -0.0000000
 C   -2.8629849   -3.5050802    0.0000000  0.00    0.0005238   -0.0001935   -0.0000000
 C   -2.9785718   -1.1299118    0.0000000  0.00   -0.0005647    0.0006663   -0.0000000
 C   -1.4149425   -5.8641763    0.0000000  0.00    0.0001051    0.0009160   -0.0000000
 C   -0.7129386   -7.0873486    0.0000000  0.00    0.0011612    0.0001392   -0.0000000
 C   -2.7669940   -8.3768265    0.0000000  0.00    0.0004895    0.0003320   -0.0000000
 C   -1.4080283   -8.3082658    0.0000000  0.00   -0.0003552   -0.0004891   -0.0000000
 C   -1.4256156   -3.3512764    0.0000000  0.00    0.0000849    0.0008517   -0.0000000
 C   -0.7123883   -4.5875845    0.0000000  0.00   -0.0013861   -0.0008325   -0.0000000
 C   -1.5827549   -0.8307311    0.0000000  0.00    0.0001451   -0.0003949   -0.0000000
 C   -0.7438455   -2.0034108    0.0000000  0.00    0.0002439    0.0004354   -0.0000000
 H   -8.8757085   -7.3406729    0.0000000  0.00   -0.0001750    0.0003238   -0.0000000
 H   -7.5747901   -9.4728563    0.0000000  0.00   -0.0002234   -0.0011857   -0.0000000
 H   -5.1528356   -9.4409582    0.0000000  0.00   -0.0001180    0.0002062   -0.0000000
 H   -8.9278549   -4.9389058    0.0000000  0.00    0.0002257    0.0010405   -0.0000000
 H   -9.0106763   -2.5248256    0.0000000  0.00   -0.0000738   -0.0003437   -0.0000000
 H   -3.2422136   -9.3544222    0.0000000  0.00   -0.0005038    0.0004720   -0.0000000
 H   -0.8729871   -9.2433601    0.0000000  0.00   -0.0003179   -0.0000569   -0.0000000
