148
 Energy =   -4513.4193184000
 C    7.1222816   -6.0965159    0.0000000  0.00    0.0003977   -0.0003421   -0.0000000
 C    5.6860298   -6.0563569    0.0000000  0.00   -0.0006427   -0.0003708   -0.0000000
 C    7.7829677   -7.3477692    0.0000000  0.00    0.0006837   -0.0003146   -0.0000000
 C    4.9620978   -7.2669567    0.0000000  0.00    0.0001074    0.0019018   -0.0000000
 C    7.0587113   -8.5160906    0.0000000  0.00   -0.0002426    0.0011876   -0.0000000
 C    5.6645556   -8.4801250    0.0000000  0.00   -0.0006809    0.0006024   -0.0000000
 C    7.1991460   -3.6636107    0.0000000  0.00    0.0009793   -0.0004982   -0.0000000
 C    5.7568369   -3.6283058    0.0000000  0.00   -0.0012941    0.0014748   -0.0000000
 C    7.8442896   -4.9026326    0.0000000  0.00   -0.0019403    0.0000493   -0.0000000
 C    4.9995281   -4.8092270    0.0000000  0.00    0.0001701    0.0001573   -0.0000000
 C    7.2843273   -1.2314864    0.0000000  0.00    0.0007179    0.0005855   -0.0000000
 C    5.8493643   -1.2204678    0.0000000  0.00    0.0007216   -0.0002795   -0.0000000
 C    7.9314843   -2.4652868    0.0000000  0.00   -0.0018789   -0.0015142   -0.0000000
 C    5.0825398   -2.3946017    0.0000000  0.00    0.0002155    0.0009888   -0.0000000
 C    7.9699076    0.0000000    0.0000000  0.00   -0.0017612   -0.0000000   -0.0000000
 C    5.1696035    0.0000000    0.0000000  0.00    0.0024524   -0.0000000   -0.0000000
 C    3.5630505   -4.7403385    0.0000000  0.00    0.0001901   -0.0006301   -0.0000000
 C    2.8365324   -5.9464302    0.0000000  0.00    0.0018374   -0.0001248   -0.0000000
 C    3.5172013   -7.1964202    0.0000000  0.00   -0.0009310   -0.0006819   -0.0000000
 C    3.6434507   -2.3457281    0.0000000  0.00   -0.0007312   -0.0021928   -0.0000000
 C    2.8644902   -3.5004087    0.0000000  0.00    0.0006486   -0.0004064   -0.0000000
 C    3.7840964    0.0000000    0.0000000  0.00   -0.0011609   -0.0000000   -0.0000000
 C    2.9814882   -1.1227365    0.0000000  0.00    0.0010217    0.0013529   -0.0000000
 C    1.4153902   -5.8565056    0.0000000  0.00    0.0002186   -0.0003195   -0.0000000
 C    0.7126549   -7.0793162    0.0000000  0.00    0.0007680   -0.0006958   -0.0000000
 C    2.7617190   -8.3680941    0.0000000  0.00    0.0005563   -0.0011034   -0.0000000
 C    1.4041981   -8.3036058    0.0000000  0.00   -0.0002672    0.0018892   -0.0000000
 C    1.4200604   -3.3345204    0.0000000  0.00   -0.0013157   -0.0020272   -0.0000000
 C    0.7106081   -4.5794903    0.0000000  0.00    0.0009858    0.0000332   -0.0000000
 C    1.5810379   -0.7904661    0.0000000  0.00   -0.0001317   -0.0048007   -0.0000000
 C    0.7337319   -1.9984908    0.0000000  0.00    0.0029569    0.0028286   -0.0000000
 H    8.8667632   -7.3668831    0.0000000  0.00    0.0010891    0.0010431   -0.0000000
 H    7.5667166   -9.4735940    0.0000000  0.00    0.0005853    0.0017891   -0.0000000
 H    5.1337497   -9.4207682    0.0000000  0.00    0.0015276    0.0005488   -0.0000000
 H    8.9284591   -4.9365723    0.0000000  0.00   -0.0001794   -0.0016871   -0.0000000
 H    9.0153577   -2.5083334    0.0000000  0.00   -0.0012118   -0.0015834   -0.0000000
 H    9.0547746    0.0000000    0.0000000  0.00   -0.0014739   -0.0000000   -0.0000000
 H    3.2373489   -9.3370964    0.0000000  0.00   -0.0005356   -0.0004039   -0.0000000
 H    0.8655942   -9.2353839    0.0000000  0.00    0.0004188   -0.0010589   -0.0000000
 C   -7.1222816    6.0965159    0.0000000  0.00   -0.0003977    0.0003421   -0.0000000
 C   -5.6860298    6.0563569    0.0000000  0.00    0.0006427    0.0003708   -0.0000000
 C   -7.7829677    7.3477692    0.0000000  0.00   -0.0006837    0.0003146   -0.0000000
 C   -4.9620978    7.2669567    0.0000000  0.00   -0.0001074   -0.0019018   -0.0000000
 C   -7.0587113    8.5160906    0.0000000  0.00    0.0002426   -0.0011876   -0.0000000
 C   -5.6645556    8.4801250    0.0000000  0.00    0.0006809   -0.0006024   -0.0000000
 C   -7.1991460    3.6636107    0.0000000  0.00   -0.0009793    0.0004982   -0.0000000
 C   -5.7568369    3.6283058    0.0000000  0.00    0.0012941   -0.0014748   -0.0000000
 C   -7.8442896    4.9026326    0.0000000  0.00    0.0019403   -0.0000493   -0.0000000
 C   -4.9995281    4.8092270    0.0000000  0.00   -0.0001701   -0.0001573   -0.0000000
 C   -7.2843273    1.2314864    0.0000000  0.00   -0.0007179   -0.0005855   -0.0000000
 C   -5.8493643    1.2204678    0.0000000  0.00   -0.0007216    0.0002795   -0.0000000
 C   -7.9314843    2.4652868    0.0000000  0.00    0.0018789    0.0015142   -0.0000000
 C   -5.0825398    2.3946017    0.0000000  0.00   -0.0002155   -0.0009888   -0.0000000
 C   -7.9699076    0.0000000    0.0000000  0.00    0.0017612   -0.0000000   -0.0000000
 C   -5.1696035    0.0000000    0.0000000  0.00   -0.0024524   -0.0000000   -0.0000000
 C   -3.5630505    4.7403385    0.0000000  0.00   -0.0001901    0.0006301   -0.0000000
 C   -2.8365324    5.9464302    0.0000000  0.00   -0.0018374    0.0001248   -0.0000000
 C   -3.5172013    7.1964202    0.0000000  0.00    0.0009310    0.0006819   -0.0000000
 C   -3.6434507    2.3457281    0.0000000  0.00    0.0007312    0.0021928   -0.0000000
 C   -2.8644902    3.5004087    0.0000000  0.00   -0.0006486    0.0004064   -0.0000000
 C   -3.7840964    0.0000000    0.0000000  0.00    0.0011609   -0.0000000   -0.0000000
 C   -2.9814882    1.1227365    0.0000000  0.00   -0.0010217   -0.0013529   -0.0000000
 C   -1.4153902    5.8565056    0.0000000  0.00   -0.0002186    0.0003195   -0.0000000
 C   -0.7126549    7.0793162    0.0000000  0.00   -0.0007680    0.0006958   -0.0000000
 C   -2.7617190    8.3680941    0.0000000  0.00   -0.0005563    0.0011034   -0.0000000
 C   -1.4041981    8.3036058    0.0000000  0.00    0.0002672   -0.0018892   -0.0000000
 C   -1.4200604    3.3345204    0.0000000  0.00    0.0013157    0.0020272   -0.0000000
 C   -0.7106081    4.5794903    0.0000000  0.00   -0.0009858   -0.0000332   -0.0000000
 C   -1.5810379    0.7904661    0.0000000  0.00    0.0001317    0.0048007   -0.0000000
 C   -0.7337319    1.9984908    0.0000000  0.00   -0.0029569   -0.0028286   -0.0000000
 H   -8.8667632    7.3668831    0.0000000  0.00   -0.0010891   -0.0010431   -0.0000000
 H   -7.5667166    9.4735940    0.0000000  0.00   -0.0005853   -0.0017891   -0.0000000
 H   -5.1337497    9.4207682    0.0000000  0.00   -0.0015276   -0.0005488   -0.0000000
 H   -8.9284591    4.9365723    0.0000000  0.00    0.0001794    0.0016871   -0.0000000
 H   -9.0153577    2.5083334    0.0000000  0.00    0.0012118    0.0015834   -0.0000000
 H   -9.0547746    0.0000000    0.0000000  0.00    0.0014739   -0.0000000   -0.0000000
 H   -3.2373489    9.3370964    0.0000000  0.00    0.0005356    0.0004039   -0.0000000
 H   -0.8655942    9.2353839    0.0000000  0.00   -0.0004188    0.0010589   -0.0000000
 C    7.1222816    6.0965159    0.0000000  0.00    0.0003977    0.0003421   -0.0000000
 C    5.6860298    6.0563569    0.0000000  0.00   -0.0006427    0.0003708   -0.0000000
 C    7.7829677    7.3477692    0.0000000  0.00    0.0006837    0.0003146   -0.0000000
 C    4.9620978    7.2669567    0.0000000  0.00    0.0001074   -0.0019018   -0.0000000
 C    7.0587113    8.5160906    0.0000000  0.00   -0.0002426   -0.0011876   -0.0000000
 C    5.6645556    8.4801250    0.0000000  0.00   -0.0006809   -0.0006024   -0.0000000
 C    7.1991460    3.6636107    0.0000000  0.00    0.0009793    0.0004982   -0.0000000
 C    5.7568369    3.6283058    0.0000000  0.00   -0.0012941   -0.0014748   -0.0000000
 C    7.8442896    4.9026326    0.0000000  0.00   -0.0019403   -0.0000493   -0.0000000
 C    4.9995281    4.8092270    0.0000000  0.00    0.0001701   -0.0001573   -0.0000000
 C    7.2843273    1.2314864    0.0000000  0.00    0.0007179   -0.0005855   -0.0000000
 C    5.8493643    1.2204678    0.0000000  0.00    0.0007216    0.0002795   -0.0000000
 C    7.9314843    2.4652868    0.0000000  0.00   -0.0018789    0.0015142   -0.0000000
 C    5.0825398    2.3946017    0.0000000  0.00    0.0002155   -0.0009888   -0.0000000
 C    3.5630505    4.7403385    0.0000000  0.00    0.0001901    0.0006301   -0.0000000
 C    2.8365324    5.9464302    0.0000000  0.00    0.0018374    0.0001248   -0.0000000
 C    3.5172013    7.1964202    0.0000000  0.00   -0.0009310    0.0006819   -0.0000000
 C    3.6434507    2.3457281    0.0000000  0.00   -0.0007312    0.0021928   -0.0000000
 C    2.8644902    3.5004087    0.0000000  0.00    0.0006486    0.0004064   -0.0000000
 C    2.9814882    1.1227365    0.0000000  0.00    0.0010217   -0.0013529   -0.0000000
 C    1.4153902    5.8565056    0.0000000  0.00    0.0002186    0.0003195   -0.0000000
 C    0.7126549    7.0793162    0.0000000  0.00    0.0007680    0.0006958   -0.0000000
 C    2.7617190    8.3680941    0.0000000  0.00    0.0005563    0.0011034   -0.0000000
 C    1.4041981    8.3036058    0.0000000  0.00   -0.0002672   -0.0018892   -0.0000000
 C    1.4200604    3.3345204    0.0000000  0.00   -0.0013157    0.0020272   -0.0000000
 C    0.7106081    4.5794903    0.0000000  0.00    0.0009858   -0.0000332   -0.0000000
 C    1.5810379    0.7904661    0.0000000  0.00   -0.0001317    0.0048007   -0.0000000
 C    0.7337319    1.9984908    0.0000000  0.00    0.0029569   -0.0028286   -0.0000000
 H    8.8667632    7.3668831    0.0000000  0.00    0.0010891   -0.0010431   -0.0000000
 H    7.5667166    9.4735940    0.0000000  0.00    0.0005853   -0.0017891   -0.0000000
 H    5.1337497    9.4207682    0.0000000  0.00    0.0015276   -0.0005488   -0.0000000
 H    8.9284591    4.9365723    0.0000000  0.00   -0.0001794    0.0016871   -0.0000000
 H    9.0153577    2.5083334    0.0000000  0.00   -0.0012118    0.0015834   -0.0000000
 H    3.2373489    9.3370964    0.0000000  0.00   -0.0005356    0.0004039   -0.0000000
 H    0.8655942    9.2353839    0.0000000  0.00    0.0004188    0.0010589   -0.0000000
 C   -7.1222816   -6.0965159    0.0000000  0.00   -0.0003977   -0.0003421   -0.0000000
 C   -5.6860298   -6.0563569    0.0000000  0.00    0.0006427   -0.0003708   -0.0000000
 C   -7.7829677   -7.3477692    0.0000000  0.00   -0.0006837   -0.0003146   -0.0000000
 C   -4.9620978   -7.2669567    0.0000000  0.00   -0.0001074    0.0019018   -0.0000000
 C   -7.0587113   -8.5160906    0.0000000  0.00    0.0002426    0.0011876   -0.0000000
 C   -5.6645556   -8.4801250    0.0000000  0.00    0.0006809    0.0006024   -0.0000000
 C   -7.1991460   -3.6636107    0.0000000  0.00   -0.0009793   -0.0004982   -0.0000000
 C   -5.7568369   -3.6283058    0.0000000  0.00    0.0012941    0.0014748   -0.0000000
 C   -7.8442896   -4.9026326    0.0000000  0.00    0.0019403    0.0000493   -0.0000000
 C   -4.9995281   -4.8092270    0.0000000  0.00   -0.0001701    0.0001573   -0.0000000
 C   -7.2843273   -1.2314864    0.0000000  0.00   -0.0007179    0.0005855   -0.0000000
 C   -5.8493643   -1.2204678    0.0000000  0.00   -0.0007216   -0.0002795   -0.0000000
 C   -7.9314843   -2.4652868    0.0000000  0.00    0.0018789   -0.0015142   -0.0000000
 C   -5.0825398   -2.3946017    0.0000000  0.00   -0.0002155    0.0009888   -0.0000000
 C   -3.5630505   -4.7403385    0.0000000  0.00   -0.0001901   -0.0006301   -0.0000000
 C   -2.8365324   -5.9464302    0.0000000  0.00   -0.0018374   -0.0001248   -0.0000000
 C   -3.5172013   -7.1964202    0.0000000  0.00    0.0009310   -0.0006819   -0.0000000
 C   -3.6434507   -2.3457281    0.0000000  0.00    0.0007312   -0.0021928   -0.0000000
 C   -2.8644902   -3.5004087    0.0000000  0.00   -0.0006486   -0.0004064   -0.0000000
 C   -2.9814882   -1.1227365    0.0000000  0.00   -0.0010217    0.0013529   -0.0000000
 C   -1.4153902   -5.8565056    0.0000000  0.00   -0.0002186   -0.0003195   -0.0000000
 C   -0.7126549   -7.0793162    0.0000000  0.00   -0.0007680   -0.0006958   -0.0000000
 C   -2.7617190   -8.3680941    0.0000000  0.00   -0.0005563   -0.0011034   -0.0000000
 C   -1.4041981   -8.3036058    0.0000000  0.00    0.0002672    0.0018892   -0.0000000
 C   -1.4200604   -3.3345204    0.0000000  0.00    0.0013157   -0.0020272   -0.0000000
 C   -0.7106081   -4.5794903    0.0000000  0.00   -0.0009858    0.0000332   -0.0000000
 C   -1.5810379   -0.7904661    0.0000000  0.00    0.0001317   -0.0048007   -0.0000000
 C   -0.7337319   -1.9984908    0.0000000  0.00   -0.0029569    0.0028286   -0.0000000
 H   -8.8667632   -7.3668831    0.0000000  0.00   -0.0010891    0.0010431   -0.0000000
 H   -7.5667166   -9.4735940    0.0000000  0.00   -0.0005853    0.0017891   -0.0000000
 H   -5.1337497   -9.4207682    0.0000000  0.00   -0.0015276    0.0005488   -0.0000000
 H   -8.9284591   -4.9365723    0.0000000  0.00    0.0001794   -0.0016871   -0.0000000
 H   -9.0153577   -2.5083334    0.0000000  0.00    0.0012118   -0.0015834   -0.0000000
 H   -3.2373489   -9.3370964    0.0000000  0.00    0.0005356   -0.0004039   -0.0000000
 H   -0.8655942   -9.2353839    0.0000000  0.00   -0.0004188   -0.0010589   -0.0000000
