148
 Energy =   -4513.2457829590
 C    7.1080069   -6.1001632    0.0000000  0.00    0.0014544    0.0010100   -0.0000000
 C    5.6773873   -6.0602653    0.0000000  0.00    0.0000480   -0.0001797   -0.0000000
 C    7.7726445   -7.3433609    0.0000000  0.00    0.0005459   -0.0003547   -0.0000000
 C    4.9564211   -7.2704471    0.0000000  0.00    0.0024933    0.0010680   -0.0000000
 C    7.0518153   -8.5153189    0.0000000  0.00    0.0001978    0.0000503   -0.0000000
 C    5.6628343   -8.4835751    0.0000000  0.00    0.0007164   -0.0002606   -0.0000000
 C    7.1920709   -3.6670025    0.0000000  0.00   -0.0001189   -0.0016280   -0.0000000
 C    5.7495736   -3.6312232    0.0000000  0.00   -0.0018963    0.0008979   -0.0000000
 C    7.8329497   -4.9018965    0.0000000  0.00    0.0006341    0.0004294   -0.0000000
 C    4.9921698   -4.8117468    0.0000000  0.00    0.0015623    0.0005417   -0.0000000
 C    7.2850838   -1.2295020    0.0000000  0.00   -0.0012211   -0.0005120   -0.0000000
 C    5.8484457   -1.2208435    0.0000000  0.00   -0.0023923   -0.0012976   -0.0000000
 C    7.9289114   -2.4674605    0.0000000  0.00   -0.0001506    0.0004188   -0.0000000
 C    5.0791189   -2.3970431    0.0000000  0.00   -0.0008509   -0.0009109   -0.0000000
 C    7.9696421    0.0000000    0.0000000  0.00   -0.0008924   -0.0000000   -0.0000000
 C    5.1703782    0.0000000    0.0000000  0.00    0.0006406   -0.0000000   -0.0000000
 C    3.5597291   -4.7465317    0.0000000  0.00   -0.0003249   -0.0019485   -0.0000000
 C    2.8326869   -5.9513966    0.0000000  0.00    0.0015929    0.0020947   -0.0000000
 C    3.5139712   -7.2026448    0.0000000  0.00    0.0020780   -0.0010134   -0.0000000
 C    3.6425923   -2.3495734    0.0000000  0.00    0.0012700   -0.0001975   -0.0000000
 C    2.8617268   -3.5026893    0.0000000  0.00   -0.0016139   -0.0015672   -0.0000000
 C    3.7793322    0.0000000    0.0000000  0.00   -0.0035601   -0.0000000   -0.0000000
 C    2.9797182   -1.1258433    0.0000000  0.00    0.0005654    0.0004498   -0.0000000
 C    1.4132762   -5.8626193    0.0000000  0.00    0.0011156    0.0001948   -0.0000000
 C    0.7111003   -7.0863300    0.0000000  0.00   -0.0014101    0.0017445   -0.0000000
 C    2.7608170   -8.3771135    0.0000000  0.00    0.0002748    0.0005808   -0.0000000
 C    1.4045622   -8.3112467    0.0000000  0.00    0.0006285   -0.0014751   -0.0000000
 C    1.4220276   -3.3407757    0.0000000  0.00    0.0003313   -0.0012596   -0.0000000
 C    0.7097052   -4.5870722    0.0000000  0.00    0.0013120    0.0013231   -0.0000000
 C    1.5821641   -0.8059657    0.0000000  0.00   -0.0004538   -0.0002532   -0.0000000
 C    0.7354723   -2.0027461    0.0000000  0.00    0.0005977   -0.0016787   -0.0000000
 H    8.8624555   -7.3561639    0.0000000  0.00   -0.0006361   -0.0033699   -0.0000000
 H    7.5630186   -9.4783572    0.0000000  0.00   -0.0005366    0.0006778   -0.0000000
 H    5.1378983   -9.4370482    0.0000000  0.00    0.0011597   -0.0009778   -0.0000000
 H    8.9190706   -4.9443863    0.0000000  0.00    0.0013107    0.0014104   -0.0000000
 H    9.0126443   -2.5168914    0.0000000  0.00    0.0003660   -0.0002652   -0.0000000
 H    9.0541503    0.0000000    0.0000000  0.00   -0.0006945   -0.0000000   -0.0000000
 H    3.2386542   -9.3492568    0.0000000  0.00   -0.0009236   -0.0019586   -0.0000000
 H    0.8674668   -9.2442399    0.0000000  0.00    0.0004029   -0.0008700   -0.0000000
 C   -7.1080069    6.1001632    0.0000000  0.00   -0.0014544   -0.0010100   -0.0000000
 C   -5.6773873    6.0602653    0.0000000  0.00   -0.0000480    0.0001797   -0.0000000
 C   -7.7726445    7.3433609    0.0000000  0.00   -0.0005459    0.0003547   -0.0000000
 C   -4.9564211    7.2704471    0.0000000  0.00   -0.0024933   -0.0010680   -0.0000000
 C   -7.0518153    8.5153189    0.0000000  0.00   -0.0001978   -0.0000503   -0.0000000
 C   -5.6628343    8.4835751    0.0000000  0.00   -0.0007164    0.0002606   -0.0000000
 C   -7.1920709    3.6670025    0.0000000  0.00    0.0001189    0.0016280   -0.0000000
 C   -5.7495736    3.6312232    0.0000000  0.00    0.0018963   -0.0008979   -0.0000000
 C   -7.8329497    4.9018965    0.0000000  0.00   -0.0006341   -0.0004294   -0.0000000
 C   -4.9921698    4.8117468    0.0000000  0.00   -0.0015623   -0.0005417   -0.0000000
 C   -7.2850838    1.2295020    0.0000000  0.00    0.0012211    0.0005120   -0.0000000
 C   -5.8484457    1.2208435    0.0000000  0.00    0.0023923    0.0012976   -0.0000000
 C   -7.9289114    2.4674605    0.0000000  0.00    0.0001506   -0.0004188   -0.0000000
 C   -5.0791189    2.3970431    0.0000000  0.00    0.0008509    0.0009109   -0.0000000
 C   -7.9696421    0.0000000    0.0000000  0.00    0.0008924   -0.0000000   -0.0000000
 C   -5.1703782    0.0000000    0.0000000  0.00   -0.0006406   -0.0000000   -0.0000000
 C   -3.5597291    4.7465317    0.0000000  0.00    0.0003249    0.0019485   -0.0000000
 C   -2.8326869    5.9513966    0.0000000  0.00   -0.0015929   -0.0020947   -0.0000000
 C   -3.5139712    7.2026448    0.0000000  0.00   -0.0020780    0.0010134   -0.0000000
 C   -3.6425923    2.3495734    0.0000000  0.00   -0.0012700    0.0001975   -0.0000000
 C   -2.8617268    3.5026893    0.0000000  0.00    0.0016139    0.0015672   -0.0000000
 C   -3.7793322    0.0000000    0.0000000  0.00    0.0035601   -0.0000000   -0.0000000
 C   -2.9797182    1.1258433    0.0000000  0.00   -0.0005654   -0.0004498   -0.0000000
 C   -1.4132762    5.8626193    0.0000000  0.00   -0.0011156   -0.0001948   -0.0000000
 C   -0.7111003    7.0863300    0.0000000  0.00    0.0014101   -0.0017445   -0.0000000
 C   -2.7608170    8.3771135    0.0000000  0.00   -0.0002748   -0.0005808   -0.0000000
 C   -1.4045622    8.3112467    0.0000000  0.00   -0.0006285    0.0014751   -0.0000000
 C   -1.4220276    3.3407757    0.0000000  0.00   -0.0003313    0.0012596   -0.0000000
 C   -0.7097052    4.5870722    0.0000000  0.00   -0.0013120   -0.0013231   -0.0000000
 C   -1.5821641    0.8059657    0.0000000  0.00    0.0004538    0.0002532   -0.0000000
 C   -0.7354723    2.0027461    0.0000000  0.00   -0.0005977    0.0016787   -0.0000000
 H   -8.8624555    7.3561639    0.0000000  0.00    0.0006361    0.0033699   -0.0000000
 H   -7.5630186    9.4783572    0.0000000  0.00    0.0005366   -0.0006778   -0.0000000
 H   -5.1378983    9.4370482    0.0000000  0.00   -0.0011597    0.0009778   -0.0000000
 H   -8.9190706    4.9443863    0.0000000  0.00   -0.0013107   -0.0014104   -0.0000000
 H   -9.0126443    2.5168914    0.0000000  0.00   -0.0003660    0.0002652   -0.0000000
 H   -9.0541503    0.0000000    0.0000000  0.00    0.0006945   -0.0000000   -0.0000000
 H   -3.2386542    9.3492568    0.0000000  0.00    0.0009236    0.0019586   -0.0000000
 H   -0.8674668    9.2442399    0.0000000  0.00   -0.0004029    0.0008700   -0.0000000
 C    7.1080069    6.1001632    0.0000000  0.00    0.0014544   -0.0010100   -0.0000000
 C    5.6773873    6.0602653    0.0000000  0.00    0.0000480    0.0001797   -0.0000000
 C    7.7726445    7.3433609    0.0000000  0.00    0.0005459    0.0003547   -0.0000000
 C    4.9564211    7.2704471    0.0000000  0.00    0.0024933   -0.0010680   -0.0000000
 C    7.0518153    8.5153189    0.0000000  0.00    0.0001978   -0.0000503   -0.0000000
 C    5.6628343    8.4835751    0.0000000  0.00    0.0007164    0.0002606   -0.0000000
 C    7.1920709    3.6670025    0.0000000  0.00   -0.0001189    0.0016280   -0.0000000
 C    5.7495736    3.6312232    0.0000000  0.00   -0.0018963   -0.0008979   -0.0000000
 C    7.8329497    4.9018965    0.0000000  0.00    0.0006341   -0.0004294   -0.0000000
 C    4.9921698    4.8117468    0.0000000  0.00    0.0015623   -0.0005417   -0.0000000
 C    7.2850838    1.2295020    0.0000000  0.00   -0.0012211    0.0005120   -0.0000000
 C    5.8484457    1.2208435    0.0000000  0.00   -0.0023923    0.0012976   -0.0000000
 C    7.9289114    2.4674605    0.0000000  0.00   -0.0001506   -0.0004188   -0.0000000
 C    5.0791189    2.3970431    0.0000000  0.00   -0.0008509    0.0009109   -0.0000000
 C    3.5597291    4.7465317    0.0000000  0.00   -0.0003249    0.0019485   -0.0000000
 C    2.8326869    5.9513966    0.0000000  0.00    0.0015929   -0.0020947   -0.0000000
 C    3.5139712    7.2026448    0.0000000  0.00    0.0020780    0.0010134   -0.0000000
 C    3.6425923    2.3495734    0.0000000  0.00    0.0012700    0.0001975   -0.0000000
 C    2.8617268    3.5026893    0.0000000  0.00   -0.0016139    0.0015672   -0.0000000
 C    2.9797182    1.1258433    0.0000000  0.00    0.0005654   -0.0004498   -0.0000000
 C    1.4132762    5.8626193    0.0000000  0.00    0.0011156   -0.0001948   -0.0000000
 C    0.7111003    7.0863300    0.0000000  0.00   -0.0014101   -0.0017445   -0.0000000
 C    2.7608170    8.3771135    0.0000000  0.00    0.0002748   -0.0005808   -0.0000000
 C    1.4045622    8.3112467    0.0000000  0.00    0.0006285    0.0014751   -0.0000000
 C    1.4220276    3.3407757    0.0000000  0.00    0.0003313    0.0012596   -0.0000000
 C    0.7097052    4.5870722    0.0000000  0.00    0.0013120   -0.0013231   -0.0000000
 C    1.5821641    0.8059657    0.0000000  0.00   -0.0004538    0.0002532   -0.0000000
 C    0.7354723    2.0027461    0.0000000  0.00    0.0005977    0.0016787   -0.0000000
 H    8.8624555    7.3561639    0.0000000  0.00   -0.0006361    0.0033699   -0.0000000
 H    7.5630186    9.4783572    0.0000000  0.00   -0.0005366   -0.0006778   -0.0000000
 H    5.1378983    9.4370482    0.0000000  0.00    0.0011597    0.0009778   -0.0000000
 H    8.9190706    4.9443863    0.0000000  0.00    0.0013107   -0.0014104   -0.0000000
 H    9.0126443    2.5168914    0.0000000  0.00    0.0003660    0.0002652   -0.0000000
 H    3.2386542    9.3492568    0.0000000  0.00   -0.0009236    0.0019586   -0.0000000
 H    0.8674668    9.2442399    0.0000000  0.00    0.0004029    0.0008700   -0.0000000
 C   -7.1080069   -6.1001632    0.0000000  0.00   -0.0014544    0.0010100   -0.0000000
 C   -5.6773873   -6.0602653    0.0000000  0.00   -0.0000480   -0.0001797   -0.0000000
 C   -7.7726445   -7.3433609    0.0000000  0.00   -0.0005459   -0.0003547   -0.0000000
 C   -4.9564211   -7.2704471    0.0000000  0.00   -0.0024933    0.0010680   -0.0000000
 C   -7.0518153   -8.5153189    0.0000000  0.00   -0.0001978    0.0000503   -0.0000000
 C   -5.6628343   -8.4835751    0.0000000  0.00   -0.0007164   -0.0002606   -0.0000000
 C   -7.1920709   -3.6670025    0.0000000  0.00    0.0001189   -0.0016280   -0.0000000
 C   -5.7495736   -3.6312232    0.0000000  0.00    0.0018963    0.0008979   -0.0000000
 C   -7.8329497   -4.9018965    0.0000000  0.00   -0.0006341    0.0004294   -0.0000000
 C   -4.9921698   -4.8117468    0.0000000  0.00   -0.0015623    0.0005417   -0.0000000
 C   -7.2850838   -1.2295020    0.0000000  0.00    0.0012211   -0.0005120   -0.0000000
 C   -5.8484457   -1.2208435    0.0000000  0.00    0.0023923   -0.0012976   -0.0000000
 C   -7.9289114   -2.4674605    0.0000000  0.00    0.0001506    0.0004188   -0.0000000
 C   -5.0791189   -2.3970431    0.0000000  0.00    0.0008509   -0.0009109   -0.0000000
 C   -3.5597291   -4.7465317    0.0000000  0.00    0.0003249   -0.0019485   -0.0000000
 C   -2.8326869   -5.9513966    0.0000000  0.00   -0.0015929    0.0020947   -0.0000000
 C   -3.5139712   -7.2026448    0.0000000  0.00   -0.0020780   -0.0010134   -0.0000000
 C   -3.6425923   -2.3495734    0.0000000  0.00   -0.0012700   -0.0001975   -0.0000000
 C   -2.8617268   -3.5026893    0.0000000  0.00    0.0016139   -0.0015672   -0.0000000
 C   -2.9797182   -1.1258433    0.0000000  0.00   -0.0005654    0.0004498   -0.0000000
 C   -1.4132762   -5.8626193    0.0000000  0.00   -0.0011156    0.0001948   -0.0000000
 C   -0.7111003   -7.0863300    0.0000000  0.00    0.0014101    0.0017445   -0.0000000
 C   -2.7608170   -8.3771135    0.0000000  0.00   -0.0002748    0.0005808   -0.0000000
 C   -1.4045622   -8.3112467    0.0000000  0.00   -0.0006285   -0.0014751   -0.0000000
 C   -1.4220276   -3.3407757    0.0000000  0.00   -0.0003313   -0.0012596   -0.0000000
 C   -0.7097052   -4.5870722    0.0000000  0.00   -0.0013120    0.0013231   -0.0000000
 C   -1.5821641   -0.8059657    0.0000000  0.00    0.0004538   -0.0002532   -0.0000000
 C   -0.7354723   -2.0027461    0.0000000  0.00   -0.0005977   -0.0016787   -0.0000000
 H   -8.8624555   -7.3561639    0.0000000  0.00    0.0006361   -0.0033699   -0.0000000
 H   -7.5630186   -9.4783572    0.0000000  0.00    0.0005366    0.0006778   -0.0000000
 H   -5.1378983   -9.4370482    0.0000000  0.00   -0.0011597   -0.0009778   -0.0000000
 H   -8.9190706   -4.9443863    0.0000000  0.00   -0.0013107    0.0014104   -0.0000000
 H   -9.0126443   -2.5168914    0.0000000  0.00   -0.0003660   -0.0002652   -0.0000000
 H   -3.2386542   -9.3492568    0.0000000  0.00    0.0009236   -0.0019586   -0.0000000
 H   -0.8674668   -9.2442399    0.0000000  0.00   -0.0004029   -0.0008700   -0.0000000
