148
 Energy =   -4513.0628874690
 C    7.1045248   -6.0961798    0.0000000  0.00    0.0002260    0.0002543   -0.0000000
 C    5.6735159   -6.0559205    0.0000000  0.00    0.0020224   -0.0022158   -0.0000000
 C    7.7692137   -7.3408184    0.0000000  0.00    0.0025836   -0.0015547   -0.0000000
 C    4.9512680   -7.2661458    0.0000000  0.00   -0.0011069    0.0010805   -0.0000000
 C    7.0480105   -8.5119635    0.0000000  0.00   -0.0010857    0.0004154   -0.0000000
 C    5.6575300   -8.4798740    0.0000000  0.00    0.0000380   -0.0016181   -0.0000000
 C    7.1892935   -3.6667220    0.0000000  0.00   -0.0003819    0.0011972   -0.0000000
 C    5.7493885   -3.6299964    0.0000000  0.00    0.0008856   -0.0020022   -0.0000000
 C    7.8312255   -4.9021550    0.0000000  0.00    0.0004384   -0.0023640   -0.0000000
 C    4.9913076   -4.8098683    0.0000000  0.00    0.0018231    0.0029367   -0.0000000
 C    7.2875360   -1.2319615    0.0000000  0.00    0.0011917   -0.0007224   -0.0000000
 C    5.8491477   -1.2221641    0.0000000  0.00    0.0020182    0.0009802   -0.0000000
 C    7.9288959   -2.4680139    0.0000000  0.00   -0.0011027   -0.0000424   -0.0000000
 C    5.0788618   -2.3946487    0.0000000  0.00   -0.0019585    0.0012027   -0.0000000
 C    7.9722881    0.0000000    0.0000000  0.00   -0.0027299   -0.0000000   -0.0000000
 C    5.1693573    0.0000000    0.0000000  0.00   -0.0000639   -0.0000000   -0.0000000
 C    3.5574660   -4.7438338    0.0000000  0.00    0.0012223   -0.0023199   -0.0000000
 C    2.8309203   -5.9471060    0.0000000  0.00    0.0004755    0.0014349   -0.0000000
 C    3.5103056   -7.2017955    0.0000000  0.00    0.0006654   -0.0026532   -0.0000000
 C    3.6418196   -2.3458969    0.0000000  0.00   -0.0000461    0.0002155   -0.0000000
 C    2.8592387   -3.4989170    0.0000000  0.00   -0.0009680    0.0019173   -0.0000000
 C    3.7818632    0.0000000    0.0000000  0.00    0.0019446   -0.0000000   -0.0000000
 C    2.9809591   -1.1240291    0.0000000  0.00   -0.0001522    0.0012649   -0.0000000
 C    1.4121521   -5.8571859    0.0000000  0.00   -0.0001134    0.0002773   -0.0000000
 C    0.7090273   -7.0817161    0.0000000  0.00    0.0004221    0.0009500   -0.0000000
 C    2.7529270   -8.3754930    0.0000000  0.00   -0.0008876    0.0006668   -0.0000000
 C    1.3993220   -8.3114766    0.0000000  0.00    0.0008895   -0.0014152   -0.0000000
 C    1.4220927   -3.3358817    0.0000000  0.00   -0.0025203   -0.0015705   -0.0000000
 C    0.7092653   -4.5828849    0.0000000  0.00    0.0034558   -0.0000700   -0.0000000
 C    1.5824906   -0.7988514    0.0000000  0.00   -0.0008071   -0.0022808   -0.0000000
 C    0.7338488   -1.9978021    0.0000000  0.00   -0.0004378   -0.0025049   -0.0000000
 H    8.8605952   -7.3503165    0.0000000  0.00    0.0002690   -0.0006274   -0.0000000
 H    7.5597456   -9.4741320    0.0000000  0.00   -0.0011271    0.0006928   -0.0000000
 H    5.1262704   -9.4303890    0.0000000  0.00    0.0008833    0.0007190   -0.0000000
 H    8.9213235   -4.9447857    0.0000000  0.00   -0.0013069    0.0007481   -0.0000000
 H    9.0140009   -2.5242479    0.0000000  0.00   -0.0027371    0.0016198   -0.0000000
 H    9.0566552    0.0000000    0.0000000  0.00   -0.0019817   -0.0000000   -0.0000000
 H    3.2175618   -9.3616968    0.0000000  0.00   -0.0001385   -0.0019452   -0.0000000
 H    0.8687475   -9.2652618    0.0000000  0.00    0.0024838    0.0007785   -0.0000000
 C   -7.1045248    6.0961798    0.0000000  0.00   -0.0002260   -0.0002543   -0.0000000
 C   -5.6735159    6.0559205    0.0000000  0.00   -0.0020224    0.0022158   -0.0000000
 C   -7.7692137    7.3408184    0.0000000  0.00   -0.0025836    0.0015547   -0.0000000
 C   -4.9512680    7.2661458    0.0000000  0.00    0.0011069   -0.0010805   -0.0000000
 C   -7.0480105    8.5119635    0.0000000  0.00    0.0010857   -0.0004154   -0.0000000
 C   -5.6575300    8.4798740    0.0000000  0.00   -0.0000380    0.0016181   -0.0000000
 C   -7.1892935    3.6667220    0.0000000  0.00    0.0003819   -0.0011972   -0.0000000
 C   -5.7493885    3.6299964    0.0000000  0.00   -0.0008856    0.0020022   -0.0000000
 C   -7.8312255    4.9021550    0.0000000  0.00   -0.0004384    0.0023640   -0.0000000
 C   -4.9913076    4.8098683    0.0000000  0.00   -0.0018231   -0.0029367   -0.0000000
 C   -7.2875360    1.2319615    0.0000000  0.00   -0.0011917    0.0007224   -0.0000000
 C   -5.8491477    1.2221641    0.0000000  0.00   -0.0020182   -0.0009802   -0.0000000
 C   -7.9288959    2.4680139    0.0000000  0.00    0.0011027    0.0000424   -0.0000000
 C   -5.0788618    2.3946487    0.0000000  0.00    0.0019585   -0.0012027   -0.0000000
 C   -7.9722881    0.0000000    0.0000000  0.00    0.0027299   -0.0000000   -0.0000000
 C   -5.1693573    0.0000000    0.0000000  0.00    0.0000639   -0.0000000   -0.0000000
 C   -3.5574660    4.7438338    0.0000000  0.00   -0.0012223    0.0023199   -0.0000000
 C   -2.8309203    5.9471060    0.0000000  0.00   -0.0004755   -0.0014349   -0.0000000
 C   -3.5103056    7.2017955    0.0000000  0.00   -0.0006654    0.0026532   -0.0000000
 C   -3.6418196    2.3458969    0.0000000  0.00    0.0000461   -0.0002155   -0.0000000
 C   -2.8592387    3.4989170    0.0000000  0.00    0.0009680   -0.0019173   -0.0000000
 C   -3.7818632    0.0000000    0.0000000  0.00   -0.0019446   -0.0000000   -0.0000000
 C   -2.9809591    1.1240291    0.0000000  0.00    0.0001522   -0.0012649   -0.0000000
 C   -1.4121521    5.8571859    0.0000000  0.00    0.0001134   -0.0002773   -0.0000000
 C   -0.7090273    7.0817161    0.0000000  0.00   -0.0004221   -0.0009500   -0.0000000
 C   -2.7529270    8.3754930    0.0000000  0.00    0.0008876   -0.0006668   -0.0000000
 C   -1.3993220    8.3114766    0.0000000  0.00   -0.0008895    0.0014152   -0.0000000
 C   -1.4220927    3.3358817    0.0000000  0.00    0.0025203    0.0015705   -0.0000000
 C   -0.7092653    4.5828849    0.0000000  0.00   -0.0034558    0.0000700   -0.0000000
 C   -1.5824906    0.7988514    0.0000000  0.00    0.0008071    0.0022808   -0.0000000
 C   -0.7338488    1.9978021    0.0000000  0.00    0.0004378    0.0025049   -0.0000000
 H   -8.8605952    7.3503165    0.0000000  0.00   -0.0002690    0.0006274   -0.0000000
 H   -7.5597456    9.4741320    0.0000000  0.00    0.0011271   -0.0006928   -0.0000000
 H   -5.1262704    9.4303890    0.0000000  0.00   -0.0008833   -0.0007190   -0.0000000
 H   -8.9213235    4.9447857    0.0000000  0.00    0.0013069   -0.0007481   -0.0000000
 H   -9.0140009    2.5242479    0.0000000  0.00    0.0027371   -0.0016198   -0.0000000
 H   -9.0566552    0.0000000    0.0000000  0.00    0.0019817   -0.0000000   -0.0000000
 H   -3.2175618    9.3616968    0.0000000  0.00    0.0001385    0.0019452   -0.0000000
 H   -0.8687475    9.2652618    0.0000000  0.00   -0.0024838   -0.0007785   -0.0000000
 C    7.1045248    6.0961798    0.0000000  0.00    0.0002260   -0.0002543   -0.0000000
 C    5.6735159    6.0559205    0.0000000  0.00    0.0020224    0.0022158   -0.0000000
 C    7.7692137    7.3408184    0.0000000  0.00    0.0025836    0.0015547   -0.0000000
 C    4.9512680    7.2661458    0.0000000  0.00   -0.0011069   -0.0010805   -0.0000000
 C    7.0480105    8.5119635    0.0000000  0.00   -0.0010857   -0.0004154   -0.0000000
 C    5.6575300    8.4798740    0.0000000  0.00    0.0000380    0.0016181   -0.0000000
 C    7.1892935    3.6667220    0.0000000  0.00   -0.0003819   -0.0011972   -0.0000000
 C    5.7493885    3.6299964    0.0000000  0.00    0.0008856    0.0020022   -0.0000000
 C    7.8312255    4.9021550    0.0000000  0.00    0.0004384    0.0023640   -0.0000000
 C    4.9913076    4.8098683    0.0000000  0.00    0.0018231   -0.0029367   -0.0000000
 C    7.2875360    1.2319615    0.0000000  0.00    0.0011917    0.0007224   -0.0000000
 C    5.8491477    1.2221641    0.0000000  0.00    0.0020182   -0.0009802   -0.0000000
 C    7.9288959    2.4680139    0.0000000  0.00   -0.0011027    0.0000424   -0.0000000
 C    5.0788618    2.3946487    0.0000000  0.00   -0.0019585   -0.0012027   -0.0000000
 C    3.5574660    4.7438338    0.0000000  0.00    0.0012223    0.0023199   -0.0000000
 C    2.8309203    5.9471060    0.0000000  0.00    0.0004755   -0.0014349   -0.0000000
 C    3.5103056    7.2017955    0.0000000  0.00    0.0006654    0.0026532   -0.0000000
 C    3.6418196    2.3458969    0.0000000  0.00   -0.0000461   -0.0002155   -0.0000000
 C    2.8592387    3.4989170    0.0000000  0.00   -0.0009680   -0.0019173   -0.0000000
 C    2.9809591    1.1240291    0.0000000  0.00   -0.0001522   -0.0012649   -0.0000000
 C    1.4121521    5.8571859    0.0000000  0.00   -0.0001134   -0.0002773   -0.0000000
 C    0.7090273    7.0817161    0.0000000  0.00    0.0004221   -0.0009500   -0.0000000
 C    2.7529270    8.3754930    0.0000000  0.00   -0.0008876   -0.0006668   -0.0000000
 C    1.3993220    8.3114766    0.0000000  0.00    0.0008895    0.0014152   -0.0000000
 C    1.4220927    3.3358817    0.0000000  0.00   -0.0025203    0.0015705   -0.0000000
 C    0.7092653    4.5828849    0.0000000  0.00    0.0034558    0.0000700   -0.0000000
 C    1.5824906    0.7988514    0.0000000  0.00   -0.0008071    0.0022808   -0.0000000
 C    0.7338488    1.9978021    0.0000000  0.00   -0.0004378    0.0025049   -0.0000000
 H    8.8605952    7.3503165    0.0000000  0.00    0.0002690    0.0006274   -0.0000000
 H    7.5597456    9.4741320    0.0000000  0.00   -0.0011271   -0.0006928   -0.0000000
 H    5.1262704    9.4303890    0.0000000  0.00    0.0008833   -0.0007190   -0.0000000
 H    8.9213235    4.9447857    0.0000000  0.00   -0.0013069   -0.0007481   -0.0000000
 H    9.0140009    2.5242479    0.0000000  0.00   -0.0027371   -0.0016198   -0.0000000
 H    3.2175618    9.3616968    0.0000000  0.00   -0.0001385    0.0019452   -0.0000000
 H    0.8687475    9.2652618    0.0000000  0.00    0.0024838   -0.0007785   -0.0000000
 C   -7.1045248   -6.0961798    0.0000000  0.00   -0.0002260    0.0002543   -0.0000000
 C   -5.6735159   -6.0559205    0.0000000  0.00   -0.0020224   -0.0022158   -0.0000000
 C   -7.7692137   -7.3408184    0.0000000  0.00   -0.0025836   -0.0015547   -0.0000000
 C   -4.9512680   -7.2661458    0.0000000  0.00    0.0011069    0.0010805   -0.0000000
 C   -7.0480105   -8.5119635    0.0000000  0.00    0.0010857    0.0004154   -0.0000000
 C   -5.6575300   -8.4798740    0.0000000  0.00   -0.0000380   -0.0016181   -0.0000000
 C   -7.1892935   -3.6667220    0.0000000  0.00    0.0003819    0.0011972   -0.0000000
 C   -5.7493885   -3.6299964    0.0000000  0.00   -0.0008856   -0.0020022   -0.0000000
 C   -7.8312255   -4.9021550    0.0000000  0.00   -0.0004384   -0.0023640   -0.0000000
 C   -4.9913076   -4.8098683    0.0000000  0.00   -0.0018231    0.0029367   -0.0000000
 C   -7.2875360   -1.2319615    0.0000000  0.00   -0.0011917   -0.0007224   -0.0000000
 C   -5.8491477   -1.2221641    0.0000000  0.00   -0.0020182    0.0009802   -0.0000000
 C   -7.9288959   -2.4680139    0.0000000  0.00    0.0011027   -0.0000424   -0.0000000
 C   -5.0788618   -2.3946487    0.0000000  0.00    0.0019585    0.0012027   -0.0000000
 C   -3.5574660   -4.7438338    0.0000000  0.00   -0.0012223   -0.0023199   -0.0000000
 C   -2.8309203   -5.9471060    0.0000000  0.00   -0.0004755    0.0014349   -0.0000000
 C   -3.5103056   -7.2017955    0.0000000  0.00   -0.0006654   -0.0026532   -0.0000000
 C   -3.6418196   -2.3458969    0.0000000  0.00    0.0000461    0.0002155   -0.0000000
 C   -2.8592387   -3.4989170    0.0000000  0.00    0.0009680    0.0019173   -0.0000000
 C   -2.9809591   -1.1240291    0.0000000  0.00    0.0001522    0.0012649   -0.0000000
 C   -1.4121521   -5.8571859    0.0000000  0.00    0.0001134    0.0002773   -0.0000000
 C   -0.7090273   -7.0817161    0.0000000  0.00   -0.0004221    0.0009500   -0.0000000
 C   -2.7529270   -8.3754930    0.0000000  0.00    0.0008876    0.0006668   -0.0000000
 C   -1.3993220   -8.3114766    0.0000000  0.00   -0.0008895   -0.0014152   -0.0000000
 C   -1.4220927   -3.3358817    0.0000000  0.00    0.0025203   -0.0015705   -0.0000000
 C   -0.7092653   -4.5828849    0.0000000  0.00   -0.0034558   -0.0000700   -0.0000000
 C   -1.5824906   -0.7988514    0.0000000  0.00    0.0008071   -0.0022808   -0.0000000
 C   -0.7338488   -1.9978021    0.0000000  0.00    0.0004378   -0.0025049   -0.0000000
 H   -8.8605952   -7.3503165    0.0000000  0.00   -0.0002690   -0.0006274   -0.0000000
 H   -7.5597456   -9.4741320    0.0000000  0.00    0.0011271    0.0006928   -0.0000000
 H   -5.1262704   -9.4303890    0.0000000  0.00   -0.0008833    0.0007190   -0.0000000
 H   -8.9213235   -4.9447857    0.0000000  0.00    0.0013069    0.0007481   -0.0000000
 H   -9.0140009   -2.5242479    0.0000000  0.00    0.0027371    0.0016198   -0.0000000
 H   -3.2175618   -9.3616968    0.0000000  0.00    0.0001385   -0.0019452   -0.0000000
 H   -0.8687475   -9.2652618    0.0000000  0.00   -0.0024838    0.0007785   -0.0000000
