148
 Energy =   -4513.4007453020
 C    7.1344079   -6.0997622    0.0000000  0.00   -0.0008364    0.0000885   -0.0000000
 C    5.6966176   -6.0642269    0.0000000  0.00    0.0005748    0.0004646   -0.0000000
 C    7.7973602   -7.3481338    0.0000000  0.00    0.0007089    0.0006650   -0.0000000
 C    4.9731555   -7.2768787    0.0000000  0.00    0.0012533    0.0019758   -0.0000000
 C    7.0735403   -8.5178578    0.0000000  0.00   -0.0004394    0.0011426   -0.0000000
 C    5.6805383   -8.4879849    0.0000000  0.00    0.0003789    0.0002163   -0.0000000
 C    7.2020423   -3.6665067    0.0000000  0.00    0.0004930   -0.0005160   -0.0000000
 C    5.7567075   -3.6330383    0.0000000  0.00   -0.0003536   -0.0009773   -0.0000000
 C    7.8528925   -4.9006182    0.0000000  0.00   -0.0017093    0.0002920   -0.0000000
 C    5.0046028   -4.8176209    0.0000000  0.00   -0.0001453    0.0014986   -0.0000000
 C    7.2703934   -1.2300945    0.0000000  0.00   -0.0003131   -0.0004428   -0.0000000
 C    5.8355587   -1.2209042    0.0000000  0.00    0.0000969   -0.0002072   -0.0000000
 C    7.9267812   -2.4627013    0.0000000  0.00   -0.0009622   -0.0004231   -0.0000000
 C    5.0796654   -2.4015372    0.0000000  0.00    0.0005754   -0.0002876   -0.0000000
 C    7.9539940    0.0000000    0.0000000  0.00   -0.0003854   -0.0000000   -0.0000000
 C    5.1596547    0.0000000    0.0000000  0.00    0.0010433   -0.0000000   -0.0000000
 C    3.5699608   -4.7564123    0.0000000  0.00   -0.0001507   -0.0016385   -0.0000000
 C    2.8431986   -5.9561979    0.0000000  0.00    0.0000468    0.0020197   -0.0000000
 C    3.5265457   -7.2095254    0.0000000  0.00   -0.0000634   -0.0010332   -0.0000000
 C    3.6435040   -2.3589767    0.0000000  0.00   -0.0011057    0.0000449   -0.0000000
 C    2.8687125   -3.5133892    0.0000000  0.00   -0.0008875    0.0012077   -0.0000000
 C    3.7679457    0.0000000    0.0000000  0.00   -0.0002175   -0.0000000   -0.0000000
 C    2.9789875   -1.1341274    0.0000000  0.00   -0.0003552   -0.0021230   -0.0000000
 C    1.4191804   -5.8689737    0.0000000  0.00    0.0017458   -0.0000690   -0.0000000
 C    0.7146793   -7.0933114    0.0000000  0.00    0.0007808   -0.0001535   -0.0000000
 C    2.7693347   -8.3756176    0.0000000  0.00    0.0000549    0.0011935   -0.0000000
 C    1.4074581   -8.3128154    0.0000000  0.00    0.0003277    0.0017667   -0.0000000
 C    1.4298454   -3.3601964    0.0000000  0.00    0.0009169    0.0000137   -0.0000000
 C    0.7161304   -4.5938356    0.0000000  0.00   -0.0020674    0.0010820   -0.0000000
 C    1.5808510   -0.8402248    0.0000000  0.00    0.0004419    0.0006200   -0.0000000
 C    0.7464970   -2.0064753    0.0000000  0.00   -0.0003519    0.0001496   -0.0000000
 H    8.8811224   -7.3658612    0.0000000  0.00    0.0006378    0.0008752   -0.0000000
 H    7.5846012   -9.4738615    0.0000000  0.00    0.0005787    0.0001497   -0.0000000
 H    5.1529676   -9.4305811    0.0000000  0.00    0.0001736    0.0006055   -0.0000000
 H    8.9371154   -4.9308238    0.0000000  0.00   -0.0014596   -0.0000411   -0.0000000
 H    9.0109745   -2.4987922    0.0000000  0.00   -0.0007470    0.0013886   -0.0000000
 H    9.0391956    0.0000000    0.0000000  0.00    0.0001942   -0.0000000   -0.0000000
 H    3.2439234   -9.3456280    0.0000000  0.00   -0.0008420    0.0003523   -0.0000000
 H    0.8707398   -9.2459363    0.0000000  0.00   -0.0009037   -0.0005918   -0.0000000
 C   -7.1344079    6.0997622    0.0000000  0.00    0.0008364   -0.0000885   -0.0000000
 C   -5.6966176    6.0642269    0.0000000  0.00   -0.0005748   -0.0004646   -0.0000000
 C   -7.7973602    7.3481338    0.0000000  0.00   -0.0007089   -0.0006650   -0.0000000
 C   -4.9731555    7.2768787    0.0000000  0.00   -0.0012533   -0.0019758   -0.0000000
 C   -7.0735403    8.5178578    0.0000000  0.00    0.0004394   -0.0011426   -0.0000000
 C   -5.6805383    8.4879849    0.0000000  0.00   -0.0003789   -0.0002163   -0.0000000
 C   -7.2020423    3.6665067    0.0000000  0.00   -0.0004930    0.0005160   -0.0000000
 C   -5.7567075    3.6330383    0.0000000  0.00    0.0003536    0.0009773   -0.0000000
 C   -7.8528925    4.9006182    0.0000000  0.00    0.0017093   -0.0002920   -0.0000000
 C   -5.0046028    4.8176209    0.0000000  0.00    0.0001453   -0.0014986   -0.0000000
 C   -7.2703934    1.2300945    0.0000000  0.00    0.0003131    0.0004428   -0.0000000
 C   -5.8355587    1.2209042    0.0000000  0.00   -0.0000969    0.0002072   -0.0000000
 C   -7.9267812    2.4627013    0.0000000  0.00    0.0009622    0.0004231   -0.0000000
 C   -5.0796654    2.4015372    0.0000000  0.00   -0.0005754    0.0002876   -0.0000000
 C   -7.9539940    0.0000000    0.0000000  0.00    0.0003854   -0.0000000   -0.0000000
 C   -5.1596547    0.0000000    0.0000000  0.00   -0.0010433   -0.0000000   -0.0000000
 C   -3.5699608    4.7564123    0.0000000  0.00    0.0001507    0.0016385   -0.0000000
 C   -2.8431986    5.9561979    0.0000000  0.00   -0.0000468   -0.0020197   -0.0000000
 C   -3.5265457    7.2095254    0.0000000  0.00    0.0000634    0.0010332   -0.0000000
 C   -3.6435040    2.3589767    0.0000000  0.00    0.0011057   -0.0000449   -0.0000000
 C   -2.8687125    3.5133892    0.0000000  0.00    0.0008875   -0.0012077   -0.0000000
 C   -3.7679457    0.0000000    0.0000000  0.00    0.0002175   -0.0000000   -0.0000000
 C   -2.9789875    1.1341274    0.0000000  0.00    0.0003552    0.0021230   -0.0000000
 C   -1.4191804    5.8689737    0.0000000  0.00   -0.0017458    0.0000690   -0.0000000
 C   -0.7146793    7.0933114    0.0000000  0.00   -0.0007808    0.0001535   -0.0000000
 C   -2.7693347    8.3756176    0.0000000  0.00   -0.0000549   -0.0011935   -0.0000000
 C   -1.4074581    8.3128154    0.0000000  0.00   -0.0003277   -0.0017667   -0.0000000
 C   -1.4298454    3.3601964    0.0000000  0.00   -0.0009169   -0.0000137   -0.0000000
 C   -0.7161304    4.5938356    0.0000000  0.00    0.0020674   -0.0010820   -0.0000000
 C   -1.5808510    0.8402248    0.0000000  0.00   -0.0004419   -0.0006200   -0.0000000
 C   -0.7464970    2.0064753    0.0000000  0.00    0.0003519   -0.0001496   -0.0000000
 H   -8.8811224    7.3658612    0.0000000  0.00   -0.0006378   -0.0008752   -0.0000000
 H   -7.5846012    9.4738615    0.0000000  0.00   -0.0005787   -0.0001497   -0.0000000
 H   -5.1529676    9.4305811    0.0000000  0.00   -0.0001736   -0.0006055   -0.0000000
 H   -8.9371154    4.9308238    0.0000000  0.00    0.0014596    0.0000411   -0.0000000
 H   -9.0109745    2.4987922    0.0000000  0.00    0.0007470   -0.0013886   -0.0000000
 H   -9.0391956    0.0000000    0.0000000  0.00   -0.0001942   -0.0000000   -0.0000000
 H   -3.2439234    9.3456280    0.0000000  0.00    0.0008420   -0.0003523   -0.0000000
 H   -0.8707398    9.2459363    0.0000000  0.00    0.0009037    0.0005918   -0.0000000
 C    7.1344079    6.0997622    0.0000000  0.00   -0.0008364   -0.0000885   -0.0000000
 C    5.6966176    6.0642269    0.0000000  0.00    0.0005748   -0.0004646   -0.0000000
 C    7.7973602    7.3481338    0.0000000  0.00    0.0007089   -0.0006650   -0.0000000
 C    4.9731555    7.2768787    0.0000000  0.00    0.0012533   -0.0019758   -0.0000000
 C    7.0735403    8.5178578    0.0000000  0.00   -0.0004394   -0.0011426   -0.0000000
 C    5.6805383    8.4879849    0.0000000  0.00    0.0003789   -0.0002163   -0.0000000
 C    7.2020423    3.6665067    0.0000000  0.00    0.0004930    0.0005160   -0.0000000
 C    5.7567075    3.6330383    0.0000000  0.00   -0.0003536    0.0009773   -0.0000000
 C    7.8528925    4.9006182    0.0000000  0.00   -0.0017093   -0.0002920   -0.0000000
 C    5.0046028    4.8176209    0.0000000  0.00   -0.0001453   -0.0014986   -0.0000000
 C    7.2703934    1.2300945    0.0000000  0.00   -0.0003131    0.0004428   -0.0000000
 C    5.8355587    1.2209042    0.0000000  0.00    0.0000969    0.0002072   -0.0000000
 C    7.9267812    2.4627013    0.0000000  0.00   -0.0009622    0.0004231   -0.0000000
 C    5.0796654    2.4015372    0.0000000  0.00    0.0005754    0.0002876   -0.0000000
 C    3.5699608    4.7564123    0.0000000  0.00   -0.0001507    0.0016385   -0.0000000
 C    2.8431986    5.9561979    0.0000000  0.00    0.0000468   -0.0020197   -0.0000000
 C    3.5265457    7.2095254    0.0000000  0.00   -0.0000634    0.0010332   -0.0000000
 C    3.6435040    2.3589767    0.0000000  0.00   -0.0011057   -0.0000449   -0.0000000
 C    2.8687125    3.5133892    0.0000000  0.00   -0.0008875   -0.0012077   -0.0000000
 C    2.9789875    1.1341274    0.0000000  0.00   -0.0003552    0.0021230   -0.0000000
 C    1.4191804    5.8689737    0.0000000  0.00    0.0017458    0.0000690   -0.0000000
 C    0.7146793    7.0933114    0.0000000  0.00    0.0007808    0.0001535   -0.0000000
 C    2.7693347    8.3756176    0.0000000  0.00    0.0000549   -0.0011935   -0.0000000
 C    1.4074581    8.3128154    0.0000000  0.00    0.0003277   -0.0017667   -0.0000000
 C    1.4298454    3.3601964    0.0000000  0.00    0.0009169   -0.0000137   -0.0000000
 C    0.7161304    4.5938356    0.0000000  0.00   -0.0020674   -0.0010820   -0.0000000
 C    1.5808510    0.8402248    0.0000000  0.00    0.0004419   -0.0006200   -0.0000000
 C    0.7464970    2.0064753    0.0000000  0.00   -0.0003519   -0.0001496   -0.0000000
 H    8.8811224    7.3658612    0.0000000  0.00    0.0006378   -0.0008752   -0.0000000
 H    7.5846012    9.4738615    0.0000000  0.00    0.0005787   -0.0001497   -0.0000000
 H    5.1529676    9.4305811    0.0000000  0.00    0.0001736   -0.0006055   -0.0000000
 H    8.9371154    4.9308238    0.0000000  0.00   -0.0014596    0.0000411   -0.0000000
 H    9.0109745    2.4987922    0.0000000  0.00   -0.0007470   -0.0013886   -0.0000000
 H    3.2439234    9.3456280    0.0000000  0.00   -0.0008420   -0.0003523   -0.0000000
 H    0.8707398    9.2459363    0.0000000  0.00   -0.0009037    0.0005918   -0.0000000
 C   -7.1344079   -6.0997622    0.0000000  0.00    0.0008364    0.0000885   -0.0000000
 C   -5.6966176   -6.0642269    0.0000000  0.00   -0.0005748    0.0004646   -0.0000000
 C   -7.7973602   -7.3481338    0.0000000  0.00   -0.0007089    0.0006650   -0.0000000
 C   -4.9731555   -7.2768787    0.0000000  0.00   -0.0012533    0.0019758   -0.0000000
 C   -7.0735403   -8.5178578    0.0000000  0.00    0.0004394    0.0011426   -0.0000000
 C   -5.6805383   -8.4879849    0.0000000  0.00   -0.0003789    0.0002163   -0.0000000
 C   -7.2020423   -3.6665067    0.0000000  0.00   -0.0004930   -0.0005160   -0.0000000
 C   -5.7567075   -3.6330383    0.0000000  0.00    0.0003536   -0.0009773   -0.0000000
 C   -7.8528925   -4.9006182    0.0000000  0.00    0.0017093    0.0002920   -0.0000000
 C   -5.0046028   -4.8176209    0.0000000  0.00    0.0001453    0.0014986   -0.0000000
 C   -7.2703934   -1.2300945    0.0000000  0.00    0.0003131   -0.0004428   -0.0000000
 C   -5.8355587   -1.2209042    0.0000000  0.00   -0.0000969   -0.0002072   -0.0000000
 C   -7.9267812   -2.4627013    0.0000000  0.00    0.0009622   -0.0004231   -0.0000000
 C   -5.0796654   -2.4015372    0.0000000  0.00   -0.0005754   -0.0002876   -0.0000000
 C   -3.5699608   -4.7564123    0.0000000  0.00    0.0001507   -0.0016385   -0.0000000
 C   -2.8431986   -5.9561979    0.0000000  0.00   -0.0000468    0.0020197   -0.0000000
 C   -3.5265457   -7.2095254    0.0000000  0.00    0.0000634   -0.0010332   -0.0000000
 C   -3.6435040   -2.3589767    0.0000000  0.00    0.0011057    0.0000449   -0.0000000
 C   -2.8687125   -3.5133892    0.0000000  0.00    0.0008875    0.0012077   -0.0000000
 C   -2.9789875   -1.1341274    0.0000000  0.00    0.0003552   -0.0021230   -0.0000000
 C   -1.4191804   -5.8689737    0.0000000  0.00   -0.0017458   -0.0000690   -0.0000000
 C   -0.7146793   -7.0933114    0.0000000  0.00   -0.0007808   -0.0001535   -0.0000000
 C   -2.7693347   -8.3756176    0.0000000  0.00   -0.0000549    0.0011935   -0.0000000
 C   -1.4074581   -8.3128154    0.0000000  0.00   -0.0003277    0.0017667   -0.0000000
 C   -1.4298454   -3.3601964    0.0000000  0.00   -0.0009169    0.0000137   -0.0000000
 C   -0.7161304   -4.5938356    0.0000000  0.00    0.0020674    0.0010820   -0.0000000
 C   -1.5808510   -0.8402248    0.0000000  0.00   -0.0004419    0.0006200   -0.0000000
 C   -0.7464970   -2.0064753    0.0000000  0.00    0.0003519    0.0001496   -0.0000000
 H   -8.8811224   -7.3658612    0.0000000  0.00   -0.0006378    0.0008752   -0.0000000
 H   -7.5846012   -9.4738615    0.0000000  0.00   -0.0005787    0.0001497   -0.0000000
 H   -5.1529676   -9.4305811    0.0000000  0.00   -0.0001736    0.0006055   -0.0000000
 H   -8.9371154   -4.9308238    0.0000000  0.00    0.0014596   -0.0000411   -0.0000000
 H   -9.0109745   -2.4987922    0.0000000  0.00    0.0007470    0.0013886   -0.0000000
 H   -3.2439234   -9.3456280    0.0000000  0.00    0.0008420    0.0003523   -0.0000000
 H   -0.8707398   -9.2459363    0.0000000  0.00    0.0009037   -0.0005918   -0.0000000
