148
 Energy =   -4513.4235153090
 C    7.1186472   -6.0996648    0.0000000  0.00   -0.0017679    0.0019358   -0.0000000
 C    5.6853331   -6.0609592    0.0000000  0.00    0.0008945    0.0000381   -0.0000000
 C    7.7788539   -7.3480856    0.0000000  0.00    0.0001167    0.0012336   -0.0000000
 C    4.9631264   -7.2693205    0.0000000  0.00   -0.0020659   -0.0007126   -0.0000000
 C    7.0561898   -8.5189175    0.0000000  0.00   -0.0011263    0.0000847   -0.0000000
 C    5.6627887   -8.4833518    0.0000000  0.00    0.0003067    0.0020528   -0.0000000
 C    7.2035601   -3.6643692    0.0000000  0.00   -0.0006139    0.0005224   -0.0000000
 C    5.7583714   -3.6319623    0.0000000  0.00    0.0000515    0.0001210   -0.0000000
 C    7.8412736   -4.9029150    0.0000000  0.00    0.0001766   -0.0018511   -0.0000000
 C    5.0022779   -4.8102230    0.0000000  0.00   -0.0012235   -0.0019024   -0.0000000
 C    7.2985430   -1.2275519    0.0000000  0.00   -0.0019282   -0.0008988   -0.0000000
 C    5.8583529   -1.2203002    0.0000000  0.00    0.0010993   -0.0016591   -0.0000000
 C    7.9358478   -2.4682550    0.0000000  0.00   -0.0005789   -0.0003571   -0.0000000
 C    5.0873922   -2.3971184    0.0000000  0.00   -0.0012286    0.0009736   -0.0000000
 C    7.9782255    0.0000000    0.0000000  0.00    0.0005069   -0.0000000   -0.0000000
 C    5.1779221    0.0000000    0.0000000  0.00   -0.0025756   -0.0000000   -0.0000000
 C    3.5658541   -4.7399766    0.0000000  0.00   -0.0006801    0.0011061   -0.0000000
 C    2.8367945   -5.9468742    0.0000000  0.00    0.0002757   -0.0024429   -0.0000000
 C    3.5168134   -7.1976399    0.0000000  0.00   -0.0001969   -0.0006924   -0.0000000
 C    3.6491362   -2.3469111    0.0000000  0.00    0.0010789   -0.0016167   -0.0000000
 C    2.8682021   -3.5007400    0.0000000  0.00    0.0015820   -0.0012513   -0.0000000
 C    3.7860003    0.0000000    0.0000000  0.00    0.0021808   -0.0000000   -0.0000000
 C    2.9868268   -1.1224839    0.0000000  0.00    0.0004910    0.0018918   -0.0000000
 C    1.4168156   -5.8560637    0.0000000  0.00   -0.0013891    0.0002257   -0.0000000
 C    0.7134418   -7.0774712    0.0000000  0.00   -0.0013755   -0.0010163   -0.0000000
 C    2.7613746   -8.3671960    0.0000000  0.00   -0.0004948    0.0002233   -0.0000000
 C    1.4029398   -8.3005800    0.0000000  0.00    0.0007249    0.0000240   -0.0000000
 C    1.4223130   -3.3374047    0.0000000  0.00   -0.0001967    0.0007474   -0.0000000
 C    0.7119764   -4.5765597    0.0000000  0.00   -0.0003029   -0.0005286   -0.0000000
 C    1.5852687   -0.7948520    0.0000000  0.00   -0.0009167   -0.0000224   -0.0000000
 C    0.7340701   -1.9981317    0.0000000  0.00   -0.0004040   -0.0015246   -0.0000000
 H    8.8629293   -7.3659412    0.0000000  0.00   -0.0018077   -0.0012364   -0.0000000
 H    7.5662919   -9.4753665    0.0000000  0.00   -0.0022661    0.0026883   -0.0000000
 H    5.1321266   -9.4240861    0.0000000  0.00   -0.0002579    0.0007063   -0.0000000
 H    8.9255163   -4.9403981    0.0000000  0.00   -0.0008015   -0.0004349   -0.0000000
 H    9.0193280   -2.5165400    0.0000000  0.00    0.0003335    0.0005487   -0.0000000
 H    9.0629045    0.0000000    0.0000000  0.00   -0.0026522   -0.0000000   -0.0000000
 H    3.2356897   -9.3367717    0.0000000  0.00    0.0000627    0.0010475   -0.0000000
 H    0.8642899   -9.2324680    0.0000000  0.00    0.0005283    0.0016850   -0.0000000
 C   -7.1186472    6.0996648    0.0000000  0.00    0.0017679   -0.0019358   -0.0000000
 C   -5.6853331    6.0609592    0.0000000  0.00   -0.0008945   -0.0000381   -0.0000000
 C   -7.7788539    7.3480856    0.0000000  0.00   -0.0001167   -0.0012336   -0.0000000
 C   -4.9631264    7.2693205    0.0000000  0.00    0.0020659    0.0007126   -0.0000000
 C   -7.0561898    8.5189175    0.0000000  0.00    0.0011263   -0.0000847   -0.0000000
 C   -5.6627887    8.4833518    0.0000000  0.00   -0.0003067   -0.0020528   -0.0000000
 C   -7.2035601    3.6643692    0.0000000  0.00    0.0006139   -0.0005224   -0.0000000
 C   -5.7583714    3.6319623    0.0000000  0.00   -0.0000515   -0.0001210   -0.0000000
 C   -7.8412736    4.9029150    0.0000000  0.00   -0.0001766    0.0018511   -0.0000000
 C   -5.0022779    4.8102230    0.0000000  0.00    0.0012235    0.0019024   -0.0000000
 C   -7.2985430    1.2275519    0.0000000  0.00    0.0019282    0.0008988   -0.0000000
 C   -5.8583529    1.2203002    0.0000000  0.00   -0.0010993    0.0016591   -0.0000000
 C   -7.9358478    2.4682550    0.0000000  0.00    0.0005789    0.0003571   -0.0000000
 C   -5.0873922    2.3971184    0.0000000  0.00    0.0012286   -0.0009736   -0.0000000
 C   -7.9782255    0.0000000    0.0000000  0.00   -0.0005069   -0.0000000   -0.0000000
 C   -5.1779221    0.0000000    0.0000000  0.00    0.0025756   -0.0000000   -0.0000000
 C   -3.5658541    4.7399766    0.0000000  0.00    0.0006801   -0.0011061   -0.0000000
 C   -2.8367945    5.9468742    0.0000000  0.00   -0.0002757    0.0024429   -0.0000000
 C   -3.5168134    7.1976399    0.0000000  0.00    0.0001969    0.0006924   -0.0000000
 C   -3.6491362    2.3469111    0.0000000  0.00   -0.0010789    0.0016167   -0.0000000
 C   -2.8682021    3.5007400    0.0000000  0.00   -0.0015820    0.0012513   -0.0000000
 C   -3.7860003    0.0000000    0.0000000  0.00   -0.0021808   -0.0000000   -0.0000000
 C   -2.9868268    1.1224839    0.0000000  0.00   -0.0004910   -0.0018918   -0.0000000
 C   -1.4168156    5.8560637    0.0000000  0.00    0.0013891   -0.0002257   -0.0000000
 C   -0.7134418    7.0774712    0.0000000  0.00    0.0013755    0.0010163   -0.0000000
 C   -2.7613746    8.3671960    0.0000000  0.00    0.0004948   -0.0002233   -0.0000000
 C   -1.4029398    8.3005800    0.0000000  0.00   -0.0007249   -0.0000240   -0.0000000
 C   -1.4223130    3.3374047    0.0000000  0.00    0.0001967   -0.0007474   -0.0000000
 C   -0.7119764    4.5765597    0.0000000  0.00    0.0003029    0.0005286   -0.0000000
 C   -1.5852687    0.7948520    0.0000000  0.00    0.0009167    0.0000224   -0.0000000
 C   -0.7340701    1.9981317    0.0000000  0.00    0.0004040    0.0015246   -0.0000000
 H   -8.8629293    7.3659412    0.0000000  0.00    0.0018077    0.0012364   -0.0000000
 H   -7.5662919    9.4753665    0.0000000  0.00    0.0022661   -0.0026883   -0.0000000
 H   -5.1321266    9.4240861    0.0000000  0.00    0.0002579   -0.0007063   -0.0000000
 H   -8.9255163    4.9403981    0.0000000  0.00    0.0008015    0.0004349   -0.0000000
 H   -9.0193280    2.5165400    0.0000000  0.00   -0.0003335   -0.0005487   -0.0000000
 H   -9.0629045    0.0000000    0.0000000  0.00    0.0026522   -0.0000000   -0.0000000
 H   -3.2356897    9.3367717    0.0000000  0.00   -0.0000627   -0.0010475   -0.0000000
 H   -0.8642899    9.2324680    0.0000000  0.00   -0.0005283   -0.0016850   -0.0000000
 C    7.1186472    6.0996648    0.0000000  0.00   -0.0017679   -0.0019358   -0.0000000
 C    5.6853331    6.0609592    0.0000000  0.00    0.0008945   -0.0000381   -0.0000000
 C    7.7788539    7.3480856    0.0000000  0.00    0.0001167   -0.0012336   -0.0000000
 C    4.9631264    7.2693205    0.0000000  0.00   -0.0020659    0.0007126   -0.0000000
 C    7.0561898    8.5189175    0.0000000  0.00   -0.0011263   -0.0000847   -0.0000000
 C    5.6627887    8.4833518    0.0000000  0.00    0.0003067   -0.0020528   -0.0000000
 C    7.2035601    3.6643692    0.0000000  0.00   -0.0006139   -0.0005224   -0.0000000
 C    5.7583714    3.6319623    0.0000000  0.00    0.0000515   -0.0001210   -0.0000000
 C    7.8412736    4.9029150    0.0000000  0.00    0.0001766    0.0018511   -0.0000000
 C    5.0022779    4.8102230    0.0000000  0.00   -0.0012235    0.0019024   -0.0000000
 C    7.2985430    1.2275519    0.0000000  0.00   -0.0019282    0.0008988   -0.0000000
 C    5.8583529    1.2203002    0.0000000  0.00    0.0010993    0.0016591   -0.0000000
 C    7.9358478    2.4682550    0.0000000  0.00   -0.0005789    0.0003571   -0.0000000
 C    5.0873922    2.3971184    0.0000000  0.00   -0.0012286   -0.0009736   -0.0000000
 C    3.5658541    4.7399766    0.0000000  0.00   -0.0006801   -0.0011061   -0.0000000
 C    2.8367945    5.9468742    0.0000000  0.00    0.0002757    0.0024429   -0.0000000
 C    3.5168134    7.1976399    0.0000000  0.00   -0.0001969    0.0006924   -0.0000000
 C    3.6491362    2.3469111    0.0000000  0.00    0.0010789    0.0016167   -0.0000000
 C    2.8682021    3.5007400    0.0000000  0.00    0.0015820    0.0012513   -0.0000000
 C    2.9868268    1.1224839    0.0000000  0.00    0.0004910   -0.0018918   -0.0000000
 C    1.4168156    5.8560637    0.0000000  0.00   -0.0013891   -0.0002257   -0.0000000
 C    0.7134418    7.0774712    0.0000000  0.00   -0.0013755    0.0010163   -0.0000000
 C    2.7613746    8.3671960    0.0000000  0.00   -0.0004948   -0.0002233   -0.0000000
 C    1.4029398    8.3005800    0.0000000  0.00    0.0007249   -0.0000240   -0.0000000
 C    1.4223130    3.3374047    0.0000000  0.00   -0.0001967   -0.0007474   -0.0000000
 C    0.7119764    4.5765597    0.0000000  0.00   -0.0003029    0.0005286   -0.0000000
 C    1.5852687    0.7948520    0.0000000  0.00   -0.0009167    0.0000224   -0.0000000
 C    0.7340701    1.9981317    0.0000000  0.00   -0.0004040    0.0015246   -0.0000000
 H    8.8629293    7.3659412    0.0000000  0.00   -0.0018077    0.0012364   -0.0000000
 H    7.5662919    9.4753665    0.0000000  0.00   -0.0022661   -0.0026883   -0.0000000
 H    5.1321266    9.4240861    0.0000000  0.00   -0.0002579   -0.0007063   -0.0000000
 H    8.9255163    4.9403981    0.0000000  0.00   -0.0008015    0.0004349   -0.0000000
 H    9.0193280    2.5165400    0.0000000  0.00    0.0003335   -0.0005487   -0.0000000
 H    3.2356897    9.3367717    0.0000000  0.00    0.0000627   -0.0010475   -0.0000000
 H    0.8642899    9.2324680    0.0000000  0.00    0.0005283   -0.0016850   -0.0000000
 C   -7.1186472   -6.0996648    0.0000000  0.00    0.0017679    0.0019358   -0.0000000
 C   -5.6853331   -6.0609592    0.0000000  0.00   -0.0008945    0.0000381   -0.0000000
 C   -7.7788539   -7.3480856    0.0000000  0.00   -0.0001167    0.0012336   -0.0000000
 C   -4.9631264   -7.2693205    0.0000000  0.00    0.0020659   -0.0007126   -0.0000000
 C   -7.0561898   -8.5189175    0.0000000  0.00    0.0011263    0.0000847   -0.0000000
 C   -5.6627887   -8.4833518    0.0000000  0.00   -0.0003067    0.0020528   -0.0000000
 C   -7.2035601   -3.6643692    0.0000000  0.00    0.0006139    0.0005224   -0.0000000
 C   -5.7583714   -3.6319623    0.0000000  0.00   -0.0000515    0.0001210   -0.0000000
 C   -7.8412736   -4.9029150    0.0000000  0.00   -0.0001766   -0.0018511   -0.0000000
 C   -5.0022779   -4.8102230    0.0000000  0.00    0.0012235   -0.0019024   -0.0000000
 C   -7.2985430   -1.2275519    0.0000000  0.00    0.0019282   -0.0008988   -0.0000000
 C   -5.8583529   -1.2203002    0.0000000  0.00   -0.0010993   -0.0016591   -0.0000000
 C   -7.9358478   -2.4682550    0.0000000  0.00    0.0005789   -0.0003571   -0.0000000
 C   -5.0873922   -2.3971184    0.0000000  0.00    0.0012286    0.0009736   -0.0000000
 C   -3.5658541   -4.7399766    0.0000000  0.00    0.0006801    0.0011061   -0.0000000
 C   -2.8367945   -5.9468742    0.0000000  0.00   -0.0002757   -0.0024429   -0.0000000
 C   -3.5168134   -7.1976399    0.0000000  0.00    0.0001969   -0.0006924   -0.0000000
 C   -3.6491362   -2.3469111    0.0000000  0.00   -0.0010789   -0.0016167   -0.0000000
 C   -2.8682021   -3.5007400    0.0000000  0.00   -0.0015820   -0.0012513   -0.0000000
 C   -2.9868268   -1.1224839    0.0000000  0.00   -0.0004910    0.0018918   -0.0000000
 C   -1.4168156   -5.8560637    0.0000000  0.00    0.0013891    0.0002257   -0.0000000
 C   -0.7134418   -7.0774712    0.0000000  0.00    0.0013755   -0.0010163   -0.0000000
 C   -2.7613746   -8.3671960    0.0000000  0.00    0.0004948    0.0002233   -0.0000000
 C   -1.4029398   -8.3005800    0.0000000  0.00   -0.0007249    0.0000240   -0.0000000
 C   -1.4223130   -3.3374047    0.0000000  0.00    0.0001967    0.0007474   -0.0000000
 C   -0.7119764   -4.5765597    0.0000000  0.00    0.0003029   -0.0005286   -0.0000000
 C   -1.5852687   -0.7948520    0.0000000  0.00    0.0009167   -0.0000224   -0.0000000
 C   -0.7340701   -1.9981317    0.0000000  0.00    0.0004040   -0.0015246   -0.0000000
 H   -8.8629293   -7.3659412    0.0000000  0.00    0.0018077   -0.0012364   -0.0000000
 H   -7.5662919   -9.4753665    0.0000000  0.00    0.0022661    0.0026883   -0.0000000
 H   -5.1321266   -9.4240861    0.0000000  0.00    0.0002579    0.0007063   -0.0000000
 H   -8.9255163   -4.9403981    0.0000000  0.00    0.0008015   -0.0004349   -0.0000000
 H   -9.0193280   -2.5165400    0.0000000  0.00   -0.0003335    0.0005487   -0.0000000
 H   -3.2356897   -9.3367717    0.0000000  0.00   -0.0000627    0.0010475   -0.0000000
 H   -0.8642899   -9.2324680    0.0000000  0.00   -0.0005283    0.0016850   -0.0000000
