148
 Energy =   -4513.1991822020
 C    7.1043763   -6.1024761    0.0000000  0.00    0.0005444   -0.0030772   -0.0000000
 C    5.6722071   -6.0619329    0.0000000  0.00    0.0011889    0.0001929   -0.0000000
 C    7.7614686   -7.3519524    0.0000000  0.00    0.0004991    0.0006084   -0.0000000
 C    4.9478870   -7.2716381    0.0000000  0.00    0.0015890   -0.0025383   -0.0000000
 C    7.0372273   -8.5237223    0.0000000  0.00   -0.0009588    0.0002957   -0.0000000
 C    5.6471919   -8.4897997    0.0000000  0.00   -0.0013326    0.0001909   -0.0000000
 C    7.1950554   -3.6669997    0.0000000  0.00   -0.0011189   -0.0005704   -0.0000000
 C    5.7511207   -3.6334844    0.0000000  0.00    0.0014569    0.0005466   -0.0000000
 C    7.8299725   -4.9078256    0.0000000  0.00   -0.0008991   -0.0005481   -0.0000000
 C    4.9930107   -4.8123255    0.0000000  0.00   -0.0012740    0.0013543   -0.0000000
 C    7.2957212   -1.2287352    0.0000000  0.00   -0.0009023    0.0015401   -0.0000000
 C    5.8561410   -1.2209976    0.0000000  0.00    0.0003196    0.0021993   -0.0000000
 C    7.9297623   -2.4714275    0.0000000  0.00    0.0009629    0.0002893   -0.0000000
 C    5.0827221   -2.3969977    0.0000000  0.00   -0.0007018    0.0004315   -0.0000000
 C    7.9749379    0.0000000    0.0000000  0.00   -0.0013667   -0.0000000   -0.0000000
 C    5.1780335    0.0000000    0.0000000  0.00    0.0024187   -0.0000000   -0.0000000
 C    3.5579176   -4.7434131    0.0000000  0.00    0.0007013   -0.0008398   -0.0000000
 C    2.8286312   -5.9482348    0.0000000  0.00    0.0014645    0.0000178   -0.0000000
 C    3.5082517   -7.2057274    0.0000000  0.00    0.0003616    0.0004585   -0.0000000
 C    3.6451203   -2.3448318    0.0000000  0.00    0.0009059    0.0060278   -0.0000000
 C    2.8604131   -3.5024443    0.0000000  0.00    0.0001008   -0.0015594   -0.0000000
 C    3.7872139    0.0000000    0.0000000  0.00   -0.0049247   -0.0000000   -0.0000000
 C    2.9877050   -1.1204526    0.0000000  0.00    0.0044302   -0.0027563   -0.0000000
 C    1.4132987   -5.8591447    0.0000000  0.00   -0.0008574   -0.0013687   -0.0000000
 C    0.7092450   -7.0855765    0.0000000  0.00    0.0013849    0.0001229   -0.0000000
 C    2.7519049   -8.3775518    0.0000000  0.00   -0.0007281    0.0012645   -0.0000000
 C    1.3973776   -8.3137004    0.0000000  0.00    0.0005247    0.0002946   -0.0000000
 C    1.4212347   -3.3440863    0.0000000  0.00   -0.0005898   -0.0002499   -0.0000000
 C    0.7110490   -4.5815586    0.0000000  0.00    0.0045483   -0.0020805   -0.0000000
 C    1.5845453   -0.7832270    0.0000000  0.00    0.0004033    0.0004166   -0.0000000
 C    0.7248991   -1.9992303    0.0000000  0.00    0.0023398   -0.0002815   -0.0000000
 H    8.8467280   -7.3712820    0.0000000  0.00    0.0010198   -0.0019679   -0.0000000
 H    7.5467951   -9.4824631    0.0000000  0.00   -0.0019886    0.0013580   -0.0000000
 H    5.1131933   -9.4339102    0.0000000  0.00   -0.0012209   -0.0013205   -0.0000000
 H    8.9141987   -4.9495368    0.0000000  0.00    0.0007413    0.0011566   -0.0000000
 H    9.0129633   -2.5235868    0.0000000  0.00    0.0004788    0.0020974   -0.0000000
 H    9.0592121    0.0000000    0.0000000  0.00    0.0016417   -0.0000000   -0.0000000
 H    3.2161360   -9.3616066    0.0000000  0.00   -0.0015692   -0.0002076   -0.0000000
 H    0.8670542   -9.2648335    0.0000000  0.00    0.0000260    0.0018373   -0.0000000
 C   -7.1043763    6.1024761    0.0000000  0.00   -0.0005444    0.0030772   -0.0000000
 C   -5.6722071    6.0619329    0.0000000  0.00   -0.0011889   -0.0001929   -0.0000000
 C   -7.7614686    7.3519524    0.0000000  0.00   -0.0004991   -0.0006084   -0.0000000
 C   -4.9478870    7.2716381    0.0000000  0.00   -0.0015890    0.0025383   -0.0000000
 C   -7.0372273    8.5237223    0.0000000  0.00    0.0009588   -0.0002957   -0.0000000
 C   -5.6471919    8.4897997    0.0000000  0.00    0.0013326   -0.0001909   -0.0000000
 C   -7.1950554    3.6669997    0.0000000  0.00    0.0011189    0.0005704   -0.0000000
 C   -5.7511207    3.6334844    0.0000000  0.00   -0.0014569   -0.0005466   -0.0000000
 C   -7.8299725    4.9078256    0.0000000  0.00    0.0008991    0.0005481   -0.0000000
 C   -4.9930107    4.8123255    0.0000000  0.00    0.0012740   -0.0013543   -0.0000000
 C   -7.2957212    1.2287352    0.0000000  0.00    0.0009023   -0.0015401   -0.0000000
 C   -5.8561410    1.2209976    0.0000000  0.00   -0.0003196   -0.0021993   -0.0000000
 C   -7.9297623    2.4714275    0.0000000  0.00   -0.0009629   -0.0002893   -0.0000000
 C   -5.0827221    2.3969977    0.0000000  0.00    0.0007018   -0.0004315   -0.0000000
 C   -7.9749379    0.0000000    0.0000000  0.00    0.0013667   -0.0000000   -0.0000000
 C   -5.1780335    0.0000000    0.0000000  0.00   -0.0024187   -0.0000000   -0.0000000
 C   -3.5579176    4.7434131    0.0000000  0.00   -0.0007013    0.0008398   -0.0000000
 C   -2.8286312    5.9482348    0.0000000  0.00   -0.0014645   -0.0000178   -0.0000000
 C   -3.5082517    7.2057274    0.0000000  0.00   -0.0003616   -0.0004585   -0.0000000
 C   -3.6451203    2.3448318    0.0000000  0.00   -0.0009059   -0.0060278   -0.0000000
 C   -2.8604131    3.5024443    0.0000000  0.00   -0.0001008    0.0015594   -0.0000000
 C   -3.7872139    0.0000000    0.0000000  0.00    0.0049247   -0.0000000   -0.0000000
 C   -2.9877050    1.1204526    0.0000000  0.00   -0.0044302    0.0027563   -0.0000000
 C   -1.4132987    5.8591447    0.0000000  0.00    0.0008574    0.0013687   -0.0000000
 C   -0.7092450    7.0855765    0.0000000  0.00   -0.0013849   -0.0001229   -0.0000000
 C   -2.7519049    8.3775518    0.0000000  0.00    0.0007281   -0.0012645   -0.0000000
 C   -1.3973776    8.3137004    0.0000000  0.00   -0.0005247   -0.0002946   -0.0000000
 C   -1.4212347    3.3440863    0.0000000  0.00    0.0005898    0.0002499   -0.0000000
 C   -0.7110490    4.5815586    0.0000000  0.00   -0.0045483    0.0020805   -0.0000000
 C   -1.5845453    0.7832270    0.0000000  0.00   -0.0004033   -0.0004166   -0.0000000
 C   -0.7248991    1.9992303    0.0000000  0.00   -0.0023398    0.0002815   -0.0000000
 H   -8.8467280    7.3712820    0.0000000  0.00   -0.0010198    0.0019679   -0.0000000
 H   -7.5467951    9.4824631    0.0000000  0.00    0.0019886   -0.0013580   -0.0000000
 H   -5.1131933    9.4339102    0.0000000  0.00    0.0012209    0.0013205   -0.0000000
 H   -8.9141987    4.9495368    0.0000000  0.00   -0.0007413   -0.0011566   -0.0000000
 H   -9.0129633    2.5235868    0.0000000  0.00   -0.0004788   -0.0020974   -0.0000000
 H   -9.0592121    0.0000000    0.0000000  0.00   -0.0016417   -0.0000000   -0.0000000
 H   -3.2161360    9.3616066    0.0000000  0.00    0.0015692    0.0002076   -0.0000000
 H   -0.8670542    9.2648335    0.0000000  0.00   -0.0000260   -0.0018373   -0.0000000
 C    7.1043763    6.1024761    0.0000000  0.00    0.0005444    0.0030772   -0.0000000
 C    5.6722071    6.0619329    0.0000000  0.00    0.0011889   -0.0001929   -0.0000000
 C    7.7614686    7.3519524    0.0000000  0.00    0.0004991   -0.0006084   -0.0000000
 C    4.9478870    7.2716381    0.0000000  0.00    0.0015890    0.0025383   -0.0000000
 C    7.0372273    8.5237223    0.0000000  0.00   -0.0009588   -0.0002957   -0.0000000
 C    5.6471919    8.4897997    0.0000000  0.00   -0.0013326   -0.0001909   -0.0000000
 C    7.1950554    3.6669997    0.0000000  0.00   -0.0011189    0.0005704   -0.0000000
 C    5.7511207    3.6334844    0.0000000  0.00    0.0014569   -0.0005466   -0.0000000
 C    7.8299725    4.9078256    0.0000000  0.00   -0.0008991    0.0005481   -0.0000000
 C    4.9930107    4.8123255    0.0000000  0.00   -0.0012740   -0.0013543   -0.0000000
 C    7.2957212    1.2287352    0.0000000  0.00   -0.0009023   -0.0015401   -0.0000000
 C    5.8561410    1.2209976    0.0000000  0.00    0.0003196   -0.0021993   -0.0000000
 C    7.9297623    2.4714275    0.0000000  0.00    0.0009629   -0.0002893   -0.0000000
 C    5.0827221    2.3969977    0.0000000  0.00   -0.0007018   -0.0004315   -0.0000000
 C    3.5579176    4.7434131    0.0000000  0.00    0.0007013    0.0008398   -0.0000000
 C    2.8286312    5.9482348    0.0000000  0.00    0.0014645   -0.0000178   -0.0000000
 C    3.5082517    7.2057274    0.0000000  0.00    0.0003616   -0.0004585   -0.0000000
 C    3.6451203    2.3448318    0.0000000  0.00    0.0009059   -0.0060278   -0.0000000
 C    2.8604131    3.5024443    0.0000000  0.00    0.0001008    0.0015594   -0.0000000
 C    2.9877050    1.1204526    0.0000000  0.00    0.0044302    0.0027563   -0.0000000
 C    1.4132987    5.8591447    0.0000000  0.00   -0.0008574    0.0013687   -0.0000000
 C    0.7092450    7.0855765    0.0000000  0.00    0.0013849   -0.0001229   -0.0000000
 C    2.7519049    8.3775518    0.0000000  0.00   -0.0007281   -0.0012645   -0.0000000
 C    1.3973776    8.3137004    0.0000000  0.00    0.0005247   -0.0002946   -0.0000000
 C    1.4212347    3.3440863    0.0000000  0.00   -0.0005898    0.0002499   -0.0000000
 C    0.7110490    4.5815586    0.0000000  0.00    0.0045483    0.0020805   -0.0000000
 C    1.5845453    0.7832270    0.0000000  0.00    0.0004033   -0.0004166   -0.0000000
 C    0.7248991    1.9992303    0.0000000  0.00    0.0023398    0.0002815   -0.0000000
 H    8.8467280    7.3712820    0.0000000  0.00    0.0010198    0.0019679   -0.0000000
 H    7.5467951    9.4824631    0.0000000  0.00   -0.0019886   -0.0013580   -0.0000000
 H    5.1131933    9.4339102    0.0000000  0.00   -0.0012209    0.0013205   -0.0000000
 H    8.9141987    4.9495368    0.0000000  0.00    0.0007413   -0.0011566   -0.0000000
 H    9.0129633    2.5235868    0.0000000  0.00    0.0004788   -0.0020974   -0.0000000
 H    3.2161360    9.3616066    0.0000000  0.00   -0.0015692    0.0002076   -0.0000000
 H    0.8670542    9.2648335    0.0000000  0.00    0.0000260   -0.0018373   -0.0000000
 C   -7.1043763   -6.1024761    0.0000000  0.00   -0.0005444   -0.0030772   -0.0000000
 C   -5.6722071   -6.0619329    0.0000000  0.00   -0.0011889    0.0001929   -0.0000000
 C   -7.7614686   -7.3519524    0.0000000  0.00   -0.0004991    0.0006084   -0.0000000
 C   -4.9478870   -7.2716381    0.0000000  0.00   -0.0015890   -0.0025383   -0.0000000
 C   -7.0372273   -8.5237223    0.0000000  0.00    0.0009588    0.0002957   -0.0000000
 C   -5.6471919   -8.4897997    0.0000000  0.00    0.0013326    0.0001909   -0.0000000
 C   -7.1950554   -3.6669997    0.0000000  0.00    0.0011189   -0.0005704   -0.0000000
 C   -5.7511207   -3.6334844    0.0000000  0.00   -0.0014569    0.0005466   -0.0000000
 C   -7.8299725   -4.9078256    0.0000000  0.00    0.0008991   -0.0005481   -0.0000000
 C   -4.9930107   -4.8123255    0.0000000  0.00    0.0012740    0.0013543   -0.0000000
 C   -7.2957212   -1.2287352    0.0000000  0.00    0.0009023    0.0015401   -0.0000000
 C   -5.8561410   -1.2209976    0.0000000  0.00   -0.0003196    0.0021993   -0.0000000
 C   -7.9297623   -2.4714275    0.0000000  0.00   -0.0009629    0.0002893   -0.0000000
 C   -5.0827221   -2.3969977    0.0000000  0.00    0.0007018    0.0004315   -0.0000000
 C   -3.5579176   -4.7434131    0.0000000  0.00   -0.0007013   -0.0008398   -0.0000000
 C   -2.8286312   -5.9482348    0.0000000  0.00   -0.0014645    0.0000178   -0.0000000
 C   -3.5082517   -7.2057274    0.0000000  0.00   -0.0003616    0.0004585   -0.0000000
 C   -3.6451203   -2.3448318    0.0000000  0.00   -0.0009059    0.0060278   -0.0000000
 C   -2.8604131   -3.5024443    0.0000000  0.00   -0.0001008   -0.0015594   -0.0000000
 C   -2.9877050   -1.1204526    0.0000000  0.00   -0.0044302   -0.0027563   -0.0000000
 C   -1.4132987   -5.8591447    0.0000000  0.00    0.0008574   -0.0013687   -0.0000000
 C   -0.7092450   -7.0855765    0.0000000  0.00   -0.0013849    0.0001229   -0.0000000
 C   -2.7519049   -8.3775518    0.0000000  0.00    0.0007281    0.0012645   -0.0000000
 C   -1.3973776   -8.3137004    0.0000000  0.00   -0.0005247    0.0002946   -0.0000000
 C   -1.4212347   -3.3440863    0.0000000  0.00    0.0005898   -0.0002499   -0.0000000
 C   -0.7110490   -4.5815586    0.0000000  0.00   -0.0045483   -0.0020805   -0.0000000
 C   -1.5845453   -0.7832270    0.0000000  0.00   -0.0004033    0.0004166   -0.0000000
 C   -0.7248991   -1.9992303    0.0000000  0.00   -0.0023398   -0.0002815   -0.0000000
 H   -8.8467280   -7.3712820    0.0000000  0.00   -0.0010198   -0.0019679   -0.0000000
 H   -7.5467951   -9.4824631    0.0000000  0.00    0.0019886    0.0013580   -0.0000000
 H   -5.1131933   -9.4339102    0.0000000  0.00    0.0012209   -0.0013205   -0.0000000
 H   -8.9141987   -4.9495368    0.0000000  0.00   -0.0007413    0.0011566   -0.0000000
 H   -9.0129633   -2.5235868    0.0000000  0.00   -0.0004788    0.0020974   -0.0000000
 H   -3.2161360   -9.3616066    0.0000000  0.00    0.0015692   -0.0002076   -0.0000000
 H   -0.8670542   -9.2648335    0.0000000  0.00   -0.0000260    0.0018373   -0.0000000
