148
 Energy =   -4513.4366080090
 C    7.1319621   -6.1020308    0.0000000  0.00   -0.0014637   -0.0003076   -0.0000000
 C    5.6980993   -6.0641610    0.0000000  0.00    0.0002448    0.0006044   -0.0000000
 C    7.7928823   -7.3502921    0.0000000  0.00    0.0001169    0.0000952   -0.0000000
 C    4.9736527   -7.2760180    0.0000000  0.00    0.0007407    0.0000917   -0.0000000
 C    7.0693385   -8.5194114    0.0000000  0.00    0.0006062    0.0002743   -0.0000000
 C    5.6750374   -8.4863681    0.0000000  0.00    0.0010988    0.0008306   -0.0000000
 C    7.2085064   -3.6701074    0.0000000  0.00   -0.0017679   -0.0006115   -0.0000000
 C    5.7650284   -3.6365105    0.0000000  0.00   -0.0000744   -0.0002889   -0.0000000
 C    7.8531755   -4.9019531    0.0000000  0.00    0.0006276   -0.0000080   -0.0000000
 C    5.0114896   -4.8162512    0.0000000  0.00   -0.0000399    0.0002917   -0.0000000
 C    7.2884100   -1.2321421    0.0000000  0.00   -0.0012471    0.0006321   -0.0000000
 C    5.8492126   -1.2233523    0.0000000  0.00   -0.0005086   -0.0000728   -0.0000000
 C    7.9368694   -2.4631863    0.0000000  0.00    0.0007184   -0.0006578   -0.0000000
 C    5.0900144   -2.3996498    0.0000000  0.00   -0.0013074    0.0010814   -0.0000000
 C    7.9702904    0.0000000    0.0000000  0.00   -0.0010039   -0.0000000   -0.0000000
 C    5.1712000    0.0000000    0.0000000  0.00   -0.0009225   -0.0000000   -0.0000000
 C    3.5718473   -4.7505361    0.0000000  0.00   -0.0005479    0.0000174   -0.0000000
 C    2.8433589   -5.9485342    0.0000000  0.00    0.0016367   -0.0013354   -0.0000000
 C    3.5252188   -7.2049423    0.0000000  0.00   -0.0001734    0.0006503   -0.0000000
 C    3.6518705   -2.3545472    0.0000000  0.00    0.0004833   -0.0005994   -0.0000000
 C    2.8733136   -3.5097969    0.0000000  0.00    0.0001113    0.0008670   -0.0000000
 C    3.7795599    0.0000000    0.0000000  0.00   -0.0005589   -0.0000000   -0.0000000
 C    2.9888118   -1.1331726    0.0000000  0.00    0.0002415    0.0007710   -0.0000000
 C    1.4203191   -5.8588000    0.0000000  0.00   -0.0014840    0.0004786   -0.0000000
 C    0.7154539   -7.0845308    0.0000000  0.00    0.0016730   -0.0000879   -0.0000000
 C    2.7688446   -8.3666150    0.0000000  0.00    0.0010233   -0.0002628   -0.0000000
 C    1.4047363   -8.3006386    0.0000000  0.00   -0.0007777    0.0002917   -0.0000000
 C    1.4322229   -3.3548239    0.0000000  0.00   -0.0002172   -0.0004277   -0.0000000
 C    0.7189071   -4.5850658    0.0000000  0.00    0.0025190   -0.0001920   -0.0000000
 C    1.5848868   -0.8359887    0.0000000  0.00    0.0000168   -0.0001815   -0.0000000
 C    0.7487383   -1.9973703    0.0000000  0.00    0.0009771   -0.0000472   -0.0000000
 H    8.8768051   -7.3689915    0.0000000  0.00   -0.0003131    0.0006534   -0.0000000
 H    7.5790318   -9.4760562    0.0000000  0.00    0.0004491    0.0002662   -0.0000000
 H    5.1461664   -9.4284149    0.0000000  0.00    0.0001910    0.0015537   -0.0000000
 H    8.9373919   -4.9358327    0.0000000  0.00   -0.0005000   -0.0000013   -0.0000000
 H    9.0207635   -2.5039290    0.0000000  0.00   -0.0003296    0.0012266   -0.0000000
 H    9.0551674    0.0000000    0.0000000  0.00   -0.0006550   -0.0000000   -0.0000000
 H    3.2409180   -9.3376487    0.0000000  0.00   -0.0004007    0.0000150   -0.0000000
 H    0.8681413   -9.2338795    0.0000000  0.00   -0.0005309    0.0002761   -0.0000000
 C   -7.1319621    6.1020308    0.0000000  0.00    0.0014637    0.0003076   -0.0000000
 C   -5.6980993    6.0641610    0.0000000  0.00   -0.0002448   -0.0006044   -0.0000000
 C   -7.7928823    7.3502921    0.0000000  0.00   -0.0001169   -0.0000952   -0.0000000
 C   -4.9736527    7.2760180    0.0000000  0.00   -0.0007407   -0.0000917   -0.0000000
 C   -7.0693385    8.5194114    0.0000000  0.00   -0.0006062   -0.0002743   -0.0000000
 C   -5.6750374    8.4863681    0.0000000  0.00   -0.0010988   -0.0008306   -0.0000000
 C   -7.2085064    3.6701074    0.0000000  0.00    0.0017679    0.0006115   -0.0000000
 C   -5.7650284    3.6365105    0.0000000  0.00    0.0000744    0.0002889   -0.0000000
 C   -7.8531755    4.9019531    0.0000000  0.00   -0.0006276    0.0000080   -0.0000000
 C   -5.0114896    4.8162512    0.0000000  0.00    0.0000399   -0.0002917   -0.0000000
 C   -7.2884100    1.2321421    0.0000000  0.00    0.0012471   -0.0006321   -0.0000000
 C   -5.8492126    1.2233523    0.0000000  0.00    0.0005086    0.0000728   -0.0000000
 C   -7.9368694    2.4631863    0.0000000  0.00   -0.0007184    0.0006578   -0.0000000
 C   -5.0900144    2.3996498    0.0000000  0.00    0.0013074   -0.0010814   -0.0000000
 C   -7.9702904    0.0000000    0.0000000  0.00    0.0010039   -0.0000000   -0.0000000
 C   -5.1712000    0.0000000    0.0000000  0.00    0.0009225   -0.0000000   -0.0000000
 C   -3.5718473    4.7505361    0.0000000  0.00    0.0005479   -0.0000174   -0.0000000
 C   -2.8433589    5.9485342    0.0000000  0.00   -0.0016367    0.0013354   -0.0000000
 C   -3.5252188    7.2049423    0.0000000  0.00    0.0001734   -0.0006503   -0.0000000
 C   -3.6518705    2.3545472    0.0000000  0.00   -0.0004833    0.0005994   -0.0000000
 C   -2.8733136    3.5097969    0.0000000  0.00   -0.0001113   -0.0008670   -0.0000000
 C   -3.7795599    0.0000000    0.0000000  0.00    0.0005589   -0.0000000   -0.0000000
 C   -2.9888118    1.1331726    0.0000000  0.00   -0.0002415   -0.0007710   -0.0000000
 C   -1.4203191    5.8588000    0.0000000  0.00    0.0014840   -0.0004786   -0.0000000
 C   -0.7154539    7.0845308    0.0000000  0.00   -0.0016730    0.0000879   -0.0000000
 C   -2.7688446    8.3666150    0.0000000  0.00   -0.0010233    0.0002628   -0.0000000
 C   -1.4047363    8.3006386    0.0000000  0.00    0.0007777   -0.0002917   -0.0000000
 C   -1.4322229    3.3548239    0.0000000  0.00    0.0002172    0.0004277   -0.0000000
 C   -0.7189071    4.5850658    0.0000000  0.00   -0.0025190    0.0001920   -0.0000000
 C   -1.5848868    0.8359887    0.0000000  0.00   -0.0000168    0.0001815   -0.0000000
 C   -0.7487383    1.9973703    0.0000000  0.00   -0.0009771    0.0000472   -0.0000000
 H   -8.8768051    7.3689915    0.0000000  0.00    0.0003131   -0.0006534   -0.0000000
 H   -7.5790318    9.4760562    0.0000000  0.00   -0.0004491   -0.0002662   -0.0000000
 H   -5.1461664    9.4284149    0.0000000  0.00   -0.0001910   -0.0015537   -0.0000000
 H   -8.9373919    4.9358327    0.0000000  0.00    0.0005000    0.0000013   -0.0000000
 H   -9.0207635    2.5039290    0.0000000  0.00    0.0003296   -0.0012266   -0.0000000
 H   -9.0551674    0.0000000    0.0000000  0.00    0.0006550   -0.0000000   -0.0000000
 H   -3.2409180    9.3376487    0.0000000  0.00    0.0004007   -0.0000150   -0.0000000
 H   -0.8681413    9.2338795    0.0000000  0.00    0.0005309   -0.0002761   -0.0000000
 C    7.1319621    6.1020308    0.0000000  0.00   -0.0014637    0.0003076   -0.0000000
 C    5.6980993    6.0641610    0.0000000  0.00    0.0002448   -0.0006044   -0.0000000
 C    7.7928823    7.3502921    0.0000000  0.00    0.0001169   -0.0000952   -0.0000000
 C    4.9736527    7.2760180    0.0000000  0.00    0.0007407   -0.0000917   -0.0000000
 C    7.0693385    8.5194114    0.0000000  0.00    0.0006062   -0.0002743   -0.0000000
 C    5.6750374    8.4863681    0.0000000  0.00    0.0010988   -0.0008306   -0.0000000
 C    7.2085064    3.6701074    0.0000000  0.00   -0.0017679    0.0006115   -0.0000000
 C    5.7650284    3.6365105    0.0000000  0.00   -0.0000744    0.0002889   -0.0000000
 C    7.8531755    4.9019531    0.0000000  0.00    0.0006276    0.0000080   -0.0000000
 C    5.0114896    4.8162512    0.0000000  0.00   -0.0000399   -0.0002917   -0.0000000
 C    7.2884100    1.2321421    0.0000000  0.00   -0.0012471   -0.0006321   -0.0000000
 C    5.8492126    1.2233523    0.0000000  0.00   -0.0005086    0.0000728   -0.0000000
 C    7.9368694    2.4631863    0.0000000  0.00    0.0007184    0.0006578   -0.0000000
 C    5.0900144    2.3996498    0.0000000  0.00   -0.0013074   -0.0010814   -0.0000000
 C    3.5718473    4.7505361    0.0000000  0.00   -0.0005479   -0.0000174   -0.0000000
 C    2.8433589    5.9485342    0.0000000  0.00    0.0016367    0.0013354   -0.0000000
 C    3.5252188    7.2049423    0.0000000  0.00   -0.0001734   -0.0006503   -0.0000000
 C    3.6518705    2.3545472    0.0000000  0.00    0.0004833    0.0005994   -0.0000000
 C    2.8733136    3.5097969    0.0000000  0.00    0.0001113   -0.0008670   -0.0000000
 C    2.9888118    1.1331726    0.0000000  0.00    0.0002415   -0.0007710   -0.0000000
 C    1.4203191    5.8588000    0.0000000  0.00   -0.0014840   -0.0004786   -0.0000000
 C    0.7154539    7.0845308    0.0000000  0.00    0.0016730    0.0000879   -0.0000000
 C    2.7688446    8.3666150    0.0000000  0.00    0.0010233    0.0002628   -0.0000000
 C    1.4047363    8.3006386    0.0000000  0.00   -0.0007777   -0.0002917   -0.0000000
 C    1.4322229    3.3548239    0.0000000  0.00   -0.0002172    0.0004277   -0.0000000
 C    0.7189071    4.5850658    0.0000000  0.00    0.0025190    0.0001920   -0.0000000
 C    1.5848868    0.8359887    0.0000000  0.00    0.0000168    0.0001815   -0.0000000
 C    0.7487383    1.9973703    0.0000000  0.00    0.0009771    0.0000472   -0.0000000
 H    8.8768051    7.3689915    0.0000000  0.00   -0.0003131   -0.0006534   -0.0000000
 H    7.5790318    9.4760562    0.0000000  0.00    0.0004491   -0.0002662   -0.0000000
 H    5.1461664    9.4284149    0.0000000  0.00    0.0001910   -0.0015537   -0.0000000
 H    8.9373919    4.9358327    0.0000000  0.00   -0.0005000    0.0000013   -0.0000000
 H    9.0207635    2.5039290    0.0000000  0.00   -0.0003296   -0.0012266   -0.0000000
 H    3.2409180    9.3376487    0.0000000  0.00   -0.0004007   -0.0000150   -0.0000000
 H    0.8681413    9.2338795    0.0000000  0.00   -0.0005309   -0.0002761   -0.0000000
 C   -7.1319621   -6.1020308    0.0000000  0.00    0.0014637   -0.0003076   -0.0000000
 C   -5.6980993   -6.0641610    0.0000000  0.00   -0.0002448    0.0006044   -0.0000000
 C   -7.7928823   -7.3502921    0.0000000  0.00   -0.0001169    0.0000952   -0.0000000
 C   -4.9736527   -7.2760180    0.0000000  0.00   -0.0007407    0.0000917   -0.0000000
 C   -7.0693385   -8.5194114    0.0000000  0.00   -0.0006062    0.0002743   -0.0000000
 C   -5.6750374   -8.4863681    0.0000000  0.00   -0.0010988    0.0008306   -0.0000000
 C   -7.2085064   -3.6701074    0.0000000  0.00    0.0017679   -0.0006115   -0.0000000
 C   -5.7650284   -3.6365105    0.0000000  0.00    0.0000744   -0.0002889   -0.0000000
 C   -7.8531755   -4.9019531    0.0000000  0.00   -0.0006276   -0.0000080   -0.0000000
 C   -5.0114896   -4.8162512    0.0000000  0.00    0.0000399    0.0002917   -0.0000000
 C   -7.2884100   -1.2321421    0.0000000  0.00    0.0012471    0.0006321   -0.0000000
 C   -5.8492126   -1.2233523    0.0000000  0.00    0.0005086   -0.0000728   -0.0000000
 C   -7.9368694   -2.4631863    0.0000000  0.00   -0.0007184   -0.0006578   -0.0000000
 C   -5.0900144   -2.3996498    0.0000000  0.00    0.0013074    0.0010814   -0.0000000
 C   -3.5718473   -4.7505361    0.0000000  0.00    0.0005479    0.0000174   -0.0000000
 C   -2.8433589   -5.9485342    0.0000000  0.00   -0.0016367   -0.0013354   -0.0000000
 C   -3.5252188   -7.2049423    0.0000000  0.00    0.0001734    0.0006503   -0.0000000
 C   -3.6518705   -2.3545472    0.0000000  0.00   -0.0004833   -0.0005994   -0.0000000
 C   -2.8733136   -3.5097969    0.0000000  0.00   -0.0001113    0.0008670   -0.0000000
 C   -2.9888118   -1.1331726    0.0000000  0.00   -0.0002415    0.0007710   -0.0000000
 C   -1.4203191   -5.8588000    0.0000000  0.00    0.0014840    0.0004786   -0.0000000
 C   -0.7154539   -7.0845308    0.0000000  0.00   -0.0016730   -0.0000879   -0.0000000
 C   -2.7688446   -8.3666150    0.0000000  0.00   -0.0010233   -0.0002628   -0.0000000
 C   -1.4047363   -8.3006386    0.0000000  0.00    0.0007777    0.0002917   -0.0000000
 C   -1.4322229   -3.3548239    0.0000000  0.00    0.0002172   -0.0004277   -0.0000000
 C   -0.7189071   -4.5850658    0.0000000  0.00   -0.0025190   -0.0001920   -0.0000000
 C   -1.5848868   -0.8359887    0.0000000  0.00   -0.0000168   -0.0001815   -0.0000000
 C   -0.7487383   -1.9973703    0.0000000  0.00   -0.0009771   -0.0000472   -0.0000000
 H   -8.8768051   -7.3689915    0.0000000  0.00    0.0003131    0.0006534   -0.0000000
 H   -7.5790318   -9.4760562    0.0000000  0.00   -0.0004491    0.0002662   -0.0000000
 H   -5.1461664   -9.4284149    0.0000000  0.00   -0.0001910    0.0015537   -0.0000000
 H   -8.9373919   -4.9358327    0.0000000  0.00    0.0005000   -0.0000013   -0.0000000
 H   -9.0207635   -2.5039290    0.0000000  0.00    0.0003296    0.0012266   -0.0000000
 H   -3.2409180   -9.3376487    0.0000000  0.00    0.0004007    0.0000150   -0.0000000
 H   -0.8681413   -9.2338795    0.0000000  0.00    0.0005309    0.0002761   -0.0000000
