148
 Energy =   -4513.4055290060
 C    7.1191929   -6.0987235    0.0000000  0.00    0.0006468   -0.0005781   -0.0000000
 C    5.6835620   -6.0603825    0.0000000  0.00    0.0012267   -0.0001992   -0.0000000
 C    7.7816710   -7.3466477    0.0000000  0.00    0.0006705    0.0006625   -0.0000000
 C    4.9610176   -7.2697579    0.0000000  0.00    0.0000991   -0.0019056   -0.0000000
 C    7.0581467   -8.5174879    0.0000000  0.00    0.0034285   -0.0027894   -0.0000000
 C    5.6660032   -8.4836700    0.0000000  0.00   -0.0008246    0.0001429   -0.0000000
 C    7.1958528   -3.6635984    0.0000000  0.00   -0.0010511    0.0001501   -0.0000000
 C    5.7520432   -3.6298318    0.0000000  0.00   -0.0011740   -0.0004863   -0.0000000
 C    7.8398633   -4.9019626    0.0000000  0.00    0.0024628   -0.0011153   -0.0000000
 C    4.9964027   -4.8116512    0.0000000  0.00    0.0007977   -0.0007629   -0.0000000
 C    7.2839311   -1.2276867    0.0000000  0.00   -0.0018029    0.0014030   -0.0000000
 C    5.8471201   -1.2195891    0.0000000  0.00    0.0006843   -0.0012282   -0.0000000
 C    7.9273474   -2.4674149    0.0000000  0.00   -0.0001279   -0.0003759   -0.0000000
 C    5.0798637   -2.3982428    0.0000000  0.00   -0.0002095    0.0020270   -0.0000000
 C    7.9678068    0.0000000    0.0000000  0.00    0.0000820   -0.0000000   -0.0000000
 C    5.1677555    0.0000000    0.0000000  0.00   -0.0015120   -0.0000000   -0.0000000
 C    3.5634709   -4.7455597    0.0000000  0.00   -0.0005363   -0.0010028   -0.0000000
 C    2.8362128   -5.9525415    0.0000000  0.00    0.0002864    0.0001078   -0.0000000
 C    3.5171017   -7.2017359    0.0000000  0.00    0.0012137   -0.0002138   -0.0000000
 C    3.6418978   -2.3505177    0.0000000  0.00    0.0013851   -0.0046066   -0.0000000
 C    2.8636740   -3.5033216    0.0000000  0.00    0.0004634    0.0030414   -0.0000000
 C    3.7780763    0.0000000    0.0000000  0.00   -0.0014839   -0.0000000   -0.0000000
 C    2.9795019   -1.1237717    0.0000000  0.00   -0.0020182    0.0054555   -0.0000000
 C    1.4150936   -5.8634735    0.0000000  0.00   -0.0008492   -0.0013048   -0.0000000
 C    0.7122608   -7.0844231    0.0000000  0.00    0.0022933   -0.0012998   -0.0000000
 C    2.7611605   -8.3750009    0.0000000  0.00    0.0013420    0.0008865   -0.0000000
 C    1.4048595   -8.3105966    0.0000000  0.00   -0.0026479   -0.0000692   -0.0000000
 C    1.4209755   -3.3413081    0.0000000  0.00    0.0000657   -0.0000912   -0.0000000
 C    0.7096458   -4.5840880    0.0000000  0.00   -0.0007991    0.0012102   -0.0000000
 C    1.5825407   -0.8003728    0.0000000  0.00   -0.0006499   -0.0001919   -0.0000000
 C    0.7343258   -2.0045203    0.0000000  0.00    0.0004567    0.0015682   -0.0000000
 H    8.8655192   -7.3637556    0.0000000  0.00    0.0005167   -0.0010531   -0.0000000
 H    7.5683147   -9.4737834    0.0000000  0.00    0.0001728    0.0005146   -0.0000000
 H    5.1356057   -9.4245141    0.0000000  0.00    0.0022056   -0.0002697   -0.0000000
 H    8.9241057   -4.9362434    0.0000000  0.00   -0.0001891   -0.0001679   -0.0000000
 H    9.0112228   -2.5134118    0.0000000  0.00   -0.0020105    0.0024342   -0.0000000
 H    9.0525077    0.0000000    0.0000000  0.00   -0.0009291   -0.0000000   -0.0000000
 H    3.2371860   -9.3440138    0.0000000  0.00   -0.0007646    0.0024277   -0.0000000
 H    0.8661711   -9.2423282    0.0000000  0.00   -0.0010822    0.0004676   -0.0000000
 C   -7.1191929    6.0987235    0.0000000  0.00   -0.0006468    0.0005781   -0.0000000
 C   -5.6835620    6.0603825    0.0000000  0.00   -0.0012267    0.0001992   -0.0000000
 C   -7.7816710    7.3466477    0.0000000  0.00   -0.0006705   -0.0006625   -0.0000000
 C   -4.9610176    7.2697579    0.0000000  0.00   -0.0000991    0.0019056   -0.0000000
 C   -7.0581467    8.5174879    0.0000000  0.00   -0.0034285    0.0027894   -0.0000000
 C   -5.6660032    8.4836700    0.0000000  0.00    0.0008246   -0.0001429   -0.0000000
 C   -7.1958528    3.6635984    0.0000000  0.00    0.0010511   -0.0001501   -0.0000000
 C   -5.7520432    3.6298318    0.0000000  0.00    0.0011740    0.0004863   -0.0000000
 C   -7.8398633    4.9019626    0.0000000  0.00   -0.0024628    0.0011153   -0.0000000
 C   -4.9964027    4.8116512    0.0000000  0.00   -0.0007977    0.0007629   -0.0000000
 C   -7.2839311    1.2276867    0.0000000  0.00    0.0018029   -0.0014030   -0.0000000
 C   -5.8471201    1.2195891    0.0000000  0.00   -0.0006843    0.0012282   -0.0000000
 C   -7.9273474    2.4674149    0.0000000  0.00    0.0001279    0.0003759   -0.0000000
 C   -5.0798637    2.3982428    0.0000000  0.00    0.0002095   -0.0020270   -0.0000000
 C   -7.9678068    0.0000000    0.0000000  0.00   -0.0000820   -0.0000000   -0.0000000
 C   -5.1677555    0.0000000    0.0000000  0.00    0.0015120   -0.0000000   -0.0000000
 C   -3.5634709    4.7455597    0.0000000  0.00    0.0005363    0.0010028   -0.0000000
 C   -2.8362128    5.9525415    0.0000000  0.00   -0.0002864   -0.0001078   -0.0000000
 C   -3.5171017    7.2017359    0.0000000  0.00   -0.0012137    0.0002138   -0.0000000
 C   -3.6418978    2.3505177    0.0000000  0.00   -0.0013851    0.0046066   -0.0000000
 C   -2.8636740    3.5033216    0.0000000  0.00   -0.0004634   -0.0030414   -0.0000000
 C   -3.7780763    0.0000000    0.0000000  0.00    0.0014839   -0.0000000   -0.0000000
 C   -2.9795019    1.1237717    0.0000000  0.00    0.0020182   -0.0054555   -0.0000000
 C   -1.4150936    5.8634735    0.0000000  0.00    0.0008492    0.0013048   -0.0000000
 C   -0.7122608    7.0844231    0.0000000  0.00   -0.0022933    0.0012998   -0.0000000
 C   -2.7611605    8.3750009    0.0000000  0.00   -0.0013420   -0.0008865   -0.0000000
 C   -1.4048595    8.3105966    0.0000000  0.00    0.0026479    0.0000692   -0.0000000
 C   -1.4209755    3.3413081    0.0000000  0.00   -0.0000657    0.0000912   -0.0000000
 C   -0.7096458    4.5840880    0.0000000  0.00    0.0007991   -0.0012102   -0.0000000
 C   -1.5825407    0.8003728    0.0000000  0.00    0.0006499    0.0001919   -0.0000000
 C   -0.7343258    2.0045203    0.0000000  0.00   -0.0004567   -0.0015682   -0.0000000
 H   -8.8655192    7.3637556    0.0000000  0.00   -0.0005167    0.0010531   -0.0000000
 H   -7.5683147    9.4737834    0.0000000  0.00   -0.0001728   -0.0005146   -0.0000000
 H   -5.1356057    9.4245141    0.0000000  0.00   -0.0022056    0.0002697   -0.0000000
 H   -8.9241057    4.9362434    0.0000000  0.00    0.0001891    0.0001679   -0.0000000
 H   -9.0112228    2.5134118    0.0000000  0.00    0.0020105   -0.0024342   -0.0000000
 H   -9.0525077    0.0000000    0.0000000  0.00    0.0009291   -0.0000000   -0.0000000
 H   -3.2371860    9.3440138    0.0000000  0.00    0.0007646   -0.0024277   -0.0000000
 H   -0.8661711    9.2423282    0.0000000  0.00    0.0010822   -0.0004676   -0.0000000
 C    7.1191929    6.0987235    0.0000000  0.00    0.0006468    0.0005781   -0.0000000
 C    5.6835620    6.0603825    0.0000000  0.00    0.0012267    0.0001992   -0.0000000
 C    7.7816710    7.3466477    0.0000000  0.00    0.0006705   -0.0006625   -0.0000000
 C    4.9610176    7.2697579    0.0000000  0.00    0.0000991    0.0019056   -0.0000000
 C    7.0581467    8.5174879    0.0000000  0.00    0.0034285    0.0027894   -0.0000000
 C    5.6660032    8.4836700    0.0000000  0.00   -0.0008246   -0.0001429   -0.0000000
 C    7.1958528    3.6635984    0.0000000  0.00   -0.0010511   -0.0001501   -0.0000000
 C    5.7520432    3.6298318    0.0000000  0.00   -0.0011740    0.0004863   -0.0000000
 C    7.8398633    4.9019626    0.0000000  0.00    0.0024628    0.0011153   -0.0000000
 C    4.9964027    4.8116512    0.0000000  0.00    0.0007977    0.0007629   -0.0000000
 C    7.2839311    1.2276867    0.0000000  0.00   -0.0018029   -0.0014030   -0.0000000
 C    5.8471201    1.2195891    0.0000000  0.00    0.0006843    0.0012282   -0.0000000
 C    7.9273474    2.4674149    0.0000000  0.00   -0.0001279    0.0003759   -0.0000000
 C    5.0798637    2.3982428    0.0000000  0.00   -0.0002095   -0.0020270   -0.0000000
 C    3.5634709    4.7455597    0.0000000  0.00   -0.0005363    0.0010028   -0.0000000
 C    2.8362128    5.9525415    0.0000000  0.00    0.0002864   -0.0001078   -0.0000000
 C    3.5171017    7.2017359    0.0000000  0.00    0.0012137    0.0002138   -0.0000000
 C    3.6418978    2.3505177    0.0000000  0.00    0.0013851    0.0046066   -0.0000000
 C    2.8636740    3.5033216    0.0000000  0.00    0.0004634   -0.0030414   -0.0000000
 C    2.9795019    1.1237717    0.0000000  0.00   -0.0020182   -0.0054555   -0.0000000
 C    1.4150936    5.8634735    0.0000000  0.00   -0.0008492    0.0013048   -0.0000000
 C    0.7122608    7.0844231    0.0000000  0.00    0.0022933    0.0012998   -0.0000000
 C    2.7611605    8.3750009    0.0000000  0.00    0.0013420   -0.0008865   -0.0000000
 C    1.4048595    8.3105966    0.0000000  0.00   -0.0026479    0.0000692   -0.0000000
 C    1.4209755    3.3413081    0.0000000  0.00    0.0000657    0.0000912   -0.0000000
 C    0.7096458    4.5840880    0.0000000  0.00   -0.0007991   -0.0012102   -0.0000000
 C    1.5825407    0.8003728    0.0000000  0.00   -0.0006499    0.0001919   -0.0000000
 C    0.7343258    2.0045203    0.0000000  0.00    0.0004567   -0.0015682   -0.0000000
 H    8.8655192    7.3637556    0.0000000  0.00    0.0005167    0.0010531   -0.0000000
 H    7.5683147    9.4737834    0.0000000  0.00    0.0001728   -0.0005146   -0.0000000
 H    5.1356057    9.4245141    0.0000000  0.00    0.0022056    0.0002697   -0.0000000
 H    8.9241057    4.9362434    0.0000000  0.00   -0.0001891    0.0001679   -0.0000000
 H    9.0112228    2.5134118    0.0000000  0.00   -0.0020105   -0.0024342   -0.0000000
 H    3.2371860    9.3440138    0.0000000  0.00   -0.0007646   -0.0024277   -0.0000000
 H    0.8661711    9.2423282    0.0000000  0.00   -0.0010822   -0.0004676   -0.0000000
 C   -7.1191929   -6.0987235    0.0000000  0.00   -0.0006468   -0.0005781   -0.0000000
 C   -5.6835620   -6.0603825    0.0000000  0.00   -0.0012267   -0.0001992   -0.0000000
 C   -7.7816710   -7.3466477    0.0000000  0.00   -0.0006705    0.0006625   -0.0000000
 C   -4.9610176   -7.2697579    0.0000000  0.00   -0.0000991   -0.0019056   -0.0000000
 C   -7.0581467   -8.5174879    0.0000000  0.00   -0.0034285   -0.0027894   -0.0000000
 C   -5.6660032   -8.4836700    0.0000000  0.00    0.0008246    0.0001429   -0.0000000
 C   -7.1958528   -3.6635984    0.0000000  0.00    0.0010511    0.0001501   -0.0000000
 C   -5.7520432   -3.6298318    0.0000000  0.00    0.0011740   -0.0004863   -0.0000000
 C   -7.8398633   -4.9019626    0.0000000  0.00   -0.0024628   -0.0011153   -0.0000000
 C   -4.9964027   -4.8116512    0.0000000  0.00   -0.0007977   -0.0007629   -0.0000000
 C   -7.2839311   -1.2276867    0.0000000  0.00    0.0018029    0.0014030   -0.0000000
 C   -5.8471201   -1.2195891    0.0000000  0.00   -0.0006843   -0.0012282   -0.0000000
 C   -7.9273474   -2.4674149    0.0000000  0.00    0.0001279   -0.0003759   -0.0000000
 C   -5.0798637   -2.3982428    0.0000000  0.00    0.0002095    0.0020270   -0.0000000
 C   -3.5634709   -4.7455597    0.0000000  0.00    0.0005363   -0.0010028   -0.0000000
 C   -2.8362128   -5.9525415    0.0000000  0.00   -0.0002864    0.0001078   -0.0000000
 C   -3.5171017   -7.2017359    0.0000000  0.00   -0.0012137   -0.0002138   -0.0000000
 C   -3.6418978   -2.3505177    0.0000000  0.00   -0.0013851   -0.0046066   -0.0000000
 C   -2.8636740   -3.5033216    0.0000000  0.00   -0.0004634    0.0030414   -0.0000000
 C   -2.9795019   -1.1237717    0.0000000  0.00    0.0020182    0.0054555   -0.0000000
 C   -1.4150936   -5.8634735    0.0000000  0.00    0.0008492   -0.0013048   -0.0000000
 C   -0.7122608   -7.0844231    0.0000000  0.00   -0.0022933   -0.0012998   -0.0000000
 C   -2.7611605   -8.3750009    0.0000000  0.00   -0.0013420    0.0008865   -0.0000000
 C   -1.4048595   -8.3105966    0.0000000  0.00    0.0026479   -0.0000692   -0.0000000
 C   -1.4209755   -3.3413081    0.0000000  0.00   -0.0000657   -0.0000912   -0.0000000
 C   -0.7096458   -4.5840880    0.0000000  0.00    0.0007991    0.0012102   -0.0000000
 C   -1.5825407   -0.8003728    0.0000000  0.00    0.0006499   -0.0001919   -0.0000000
 C   -0.7343258   -2.0045203    0.0000000  0.00   -0.0004567    0.0015682   -0.0000000
 H   -8.8655192   -7.3637556    0.0000000  0.00   -0.0005167   -0.0010531   -0.0000000
 H   -7.5683147   -9.4737834    0.0000000  0.00   -0.0001728    0.0005146   -0.0000000
 H   -5.1356057   -9.4245141    0.0000000  0.00   -0.0022056   -0.0002697   -0.0000000
 H   -8.9241057   -4.9362434    0.0000000  0.00    0.0001891   -0.0001679   -0.0000000
 H   -9.0112228   -2.5134118    0.0000000  0.00    0.0020105    0.0024342   -0.0000000
 H   -3.2371860   -9.3440138    0.0000000  0.00    0.0007646    0.0024277   -0.0000000
 H   -0.8661711   -9.2423282    0.0000000  0.00    0.0010822    0.0004676   -0.0000000
