148
 Energy =   -4513.3709793310
 C    7.1146982   -6.1007792    0.0000000  0.00   -0.0001041    0.0004248   -0.0000000
 C    5.6804834   -6.0623744    0.0000000  0.00    0.0000383   -0.0001245   -0.0000000
 C    7.7715469   -7.3514302    0.0000000  0.00    0.0000877   -0.0002567   -0.0000000
 C    4.9571239   -7.2732162    0.0000000  0.00   -0.0004554    0.0004236   -0.0000000
 C    7.0482246   -8.5236224    0.0000000  0.00   -0.0000091    0.0004334   -0.0000000
 C    5.6571475   -8.4907768    0.0000000  0.00   -0.0000214   -0.0004618   -0.0000000
 C    7.2012912   -3.6665368    0.0000000  0.00   -0.0004913    0.0004362   -0.0000000
 C    5.7571242   -3.6337195    0.0000000  0.00    0.0002108   -0.0002205   -0.0000000
 C    7.8382404   -4.9064293    0.0000000  0.00   -0.0003455    0.0001047   -0.0000000
 C    4.9990367   -4.8133741    0.0000000  0.00   -0.0001773    0.0001432   -0.0000000
 C    7.2985037   -1.2295731    0.0000000  0.00   -0.0000624   -0.0000200   -0.0000000
 C    5.8577565   -1.2215982    0.0000000  0.00    0.0004594    0.0000656   -0.0000000
 C    7.9339214   -2.4686768    0.0000000  0.00    0.0000141   -0.0000900   -0.0000000
 C    5.0871178   -2.3962438    0.0000000  0.00   -0.0000228   -0.0001918   -0.0000000
 C    7.9781574    0.0000000    0.0000000  0.00    0.0004187   -0.0000000   -0.0000000
 C    5.1800630    0.0000000    0.0000000  0.00   -0.0001354   -0.0000000   -0.0000000
 C    3.5622698   -4.7441925    0.0000000  0.00    0.0001660   -0.0000968   -0.0000000
 C    2.8339236   -5.9478192    0.0000000  0.00    0.0002568    0.0005389   -0.0000000
 C    3.5160225   -7.2033359    0.0000000  0.00    0.0003410    0.0004534   -0.0000000
 C    3.6476806   -2.3445843    0.0000000  0.00   -0.0001776   -0.0002038   -0.0000000
 C    2.8632285   -3.5040410    0.0000000  0.00   -0.0000200    0.0002202   -0.0000000
 C    3.7896202    0.0000000    0.0000000  0.00    0.0008924   -0.0000000   -0.0000000
 C    2.9904998   -1.1217599    0.0000000  0.00   -0.0000706   -0.0003783   -0.0000000
 C    1.4157933   -5.8595785    0.0000000  0.00   -0.0002277   -0.0002149   -0.0000000
 C    0.7112813   -7.0848840    0.0000000  0.00    0.0001021    0.0006396   -0.0000000
 C    2.7598538   -8.3735572    0.0000000  0.00   -0.0001916   -0.0001741   -0.0000000
 C    1.4024312   -8.3088329    0.0000000  0.00   -0.0000378   -0.0001699   -0.0000000
 C    1.4233921   -3.3467005    0.0000000  0.00    0.0000862    0.0000535   -0.0000000
 C    0.7128014   -4.5833732    0.0000000  0.00    0.0000875   -0.0000866   -0.0000000
 C    1.5843780   -0.7862423    0.0000000  0.00    0.0001755    0.0003722   -0.0000000
 C    0.7268721   -1.9976549    0.0000000  0.00   -0.0004853   -0.0002676   -0.0000000
 H    8.8554445   -7.3713481    0.0000000  0.00    0.0003711   -0.0005448   -0.0000000
 H    7.5599775   -9.4790392    0.0000000  0.00   -0.0001348   -0.0002849   -0.0000000
 H    5.1266427   -9.4312031    0.0000000  0.00   -0.0004585   -0.0001611   -0.0000000
 H    8.9222985   -4.9451800    0.0000000  0.00   -0.0008477    0.0001284   -0.0000000
 H    9.0173795   -2.5183592    0.0000000  0.00   -0.0001326    0.0006934   -0.0000000
 H    9.0626565    0.0000000    0.0000000  0.00    0.0003888   -0.0000000   -0.0000000
 H    3.2355234   -9.3422233    0.0000000  0.00   -0.0004248    0.0003307   -0.0000000
 H    0.8642795   -9.2406947    0.0000000  0.00   -0.0003562    0.0002181   -0.0000000
 C   -7.1146982    6.1007792    0.0000000  0.00    0.0001041   -0.0004248   -0.0000000
 C   -5.6804834    6.0623744    0.0000000  0.00   -0.0000383    0.0001245   -0.0000000
 C   -7.7715469    7.3514302    0.0000000  0.00   -0.0000877    0.0002567   -0.0000000
 C   -4.9571239    7.2732162    0.0000000  0.00    0.0004554   -0.0004236   -0.0000000
 C   -7.0482246    8.5236224    0.0000000  0.00    0.0000091   -0.0004334   -0.0000000
 C   -5.6571475    8.4907768    0.0000000  0.00    0.0000214    0.0004618   -0.0000000
 C   -7.2012912    3.6665368    0.0000000  0.00    0.0004913   -0.0004362   -0.0000000
 C   -5.7571242    3.6337195    0.0000000  0.00   -0.0002108    0.0002205   -0.0000000
 C   -7.8382404    4.9064293    0.0000000  0.00    0.0003455   -0.0001047   -0.0000000
 C   -4.9990367    4.8133741    0.0000000  0.00    0.0001773   -0.0001432   -0.0000000
 C   -7.2985037    1.2295731    0.0000000  0.00    0.0000624    0.0000200   -0.0000000
 C   -5.8577565    1.2215982    0.0000000  0.00   -0.0004594   -0.0000656   -0.0000000
 C   -7.9339214    2.4686768    0.0000000  0.00   -0.0000141    0.0000900   -0.0000000
 C   -5.0871178    2.3962438    0.0000000  0.00    0.0000228    0.0001918   -0.0000000
 C   -7.9781574    0.0000000    0.0000000  0.00   -0.0004187   -0.0000000   -0.0000000
 C   -5.1800630    0.0000000    0.0000000  0.00    0.0001354   -0.0000000   -0.0000000
 C   -3.5622698    4.7441925    0.0000000  0.00   -0.0001660    0.0000968   -0.0000000
 C   -2.8339236    5.9478192    0.0000000  0.00   -0.0002568   -0.0005389   -0.0000000
 C   -3.5160225    7.2033359    0.0000000  0.00   -0.0003410   -0.0004534   -0.0000000
 C   -3.6476806    2.3445843    0.0000000  0.00    0.0001776    0.0002038   -0.0000000
 C   -2.8632285    3.5040410    0.0000000  0.00    0.0000200   -0.0002202   -0.0000000
 C   -3.7896202    0.0000000    0.0000000  0.00   -0.0008924   -0.0000000   -0.0000000
 C   -2.9904998    1.1217599    0.0000000  0.00    0.0000706    0.0003783   -0.0000000
 C   -1.4157933    5.8595785    0.0000000  0.00    0.0002277    0.0002149   -0.0000000
 C   -0.7112813    7.0848840    0.0000000  0.00   -0.0001021   -0.0006396   -0.0000000
 C   -2.7598538    8.3735572    0.0000000  0.00    0.0001916    0.0001741   -0.0000000
 C   -1.4024312    8.3088329    0.0000000  0.00    0.0000378    0.0001699   -0.0000000
 C   -1.4233921    3.3467005    0.0000000  0.00   -0.0000862   -0.0000535   -0.0000000
 C   -0.7128014    4.5833732    0.0000000  0.00   -0.0000875    0.0000866   -0.0000000
 C   -1.5843780    0.7862423    0.0000000  0.00   -0.0001755   -0.0003722   -0.0000000
 C   -0.7268721    1.9976549    0.0000000  0.00    0.0004853    0.0002676   -0.0000000
 H   -8.8554445    7.3713481    0.0000000  0.00   -0.0003711    0.0005448   -0.0000000
 H   -7.5599775    9.4790392    0.0000000  0.00    0.0001348    0.0002849   -0.0000000
 H   -5.1266427    9.4312031    0.0000000  0.00    0.0004585    0.0001611   -0.0000000
 H   -8.9222985    4.9451800    0.0000000  0.00    0.0008477   -0.0001284   -0.0000000
 H   -9.0173795    2.5183592    0.0000000  0.00    0.0001326   -0.0006934   -0.0000000
 H   -9.0626565    0.0000000    0.0000000  0.00   -0.0003888   -0.0000000   -0.0000000
 H   -3.2355234    9.3422233    0.0000000  0.00    0.0004248   -0.0003307   -0.0000000
 H   -0.8642795    9.2406947    0.0000000  0.00    0.0003562   -0.0002181   -0.0000000
 C    7.1146982    6.1007792    0.0000000  0.00   -0.0001041   -0.0004248   -0.0000000
 C    5.6804834    6.0623744    0.0000000  0.00    0.0000383    0.0001245   -0.0000000
 C    7.7715469    7.3514302    0.0000000  0.00    0.0000877    0.0002567   -0.0000000
 C    4.9571239    7.2732162    0.0000000  0.00   -0.0004554   -0.0004236   -0.0000000
 C    7.0482246    8.5236224    0.0000000  0.00   -0.0000091   -0.0004334   -0.0000000
 C    5.6571475    8.4907768    0.0000000  0.00   -0.0000214    0.0004618   -0.0000000
 C    7.2012912    3.6665368    0.0000000  0.00   -0.0004913   -0.0004362   -0.0000000
 C    5.7571242    3.6337195    0.0000000  0.00    0.0002108    0.0002205   -0.0000000
 C    7.8382404    4.9064293    0.0000000  0.00   -0.0003455   -0.0001047   -0.0000000
 C    4.9990367    4.8133741    0.0000000  0.00   -0.0001773   -0.0001432   -0.0000000
 C    7.2985037    1.2295731    0.0000000  0.00   -0.0000624    0.0000200   -0.0000000
 C    5.8577565    1.2215982    0.0000000  0.00    0.0004594   -0.0000656   -0.0000000
 C    7.9339214    2.4686768    0.0000000  0.00    0.0000141    0.0000900   -0.0000000
 C    5.0871178    2.3962438    0.0000000  0.00   -0.0000228    0.0001918   -0.0000000
 C    3.5622698    4.7441925    0.0000000  0.00    0.0001660    0.0000968   -0.0000000
 C    2.8339236    5.9478192    0.0000000  0.00    0.0002568   -0.0005389   -0.0000000
 C    3.5160225    7.2033359    0.0000000  0.00    0.0003410   -0.0004534   -0.0000000
 C    3.6476806    2.3445843    0.0000000  0.00   -0.0001776    0.0002038   -0.0000000
 C    2.8632285    3.5040410    0.0000000  0.00   -0.0000200   -0.0002202   -0.0000000
 C    2.9904998    1.1217599    0.0000000  0.00   -0.0000706    0.0003783   -0.0000000
 C    1.4157933    5.8595785    0.0000000  0.00   -0.0002277    0.0002149   -0.0000000
 C    0.7112813    7.0848840    0.0000000  0.00    0.0001021   -0.0006396   -0.0000000
 C    2.7598538    8.3735572    0.0000000  0.00   -0.0001916    0.0001741   -0.0000000
 C    1.4024312    8.3088329    0.0000000  0.00   -0.0000378    0.0001699   -0.0000000
 C    1.4233921    3.3467005    0.0000000  0.00    0.0000862   -0.0000535   -0.0000000
 C    0.7128014    4.5833732    0.0000000  0.00    0.0000875    0.0000866   -0.0000000
 C    1.5843780    0.7862423    0.0000000  0.00    0.0001755   -0.0003722   -0.0000000
 C    0.7268721    1.9976549    0.0000000  0.00   -0.0004853    0.0002676   -0.0000000
 H    8.8554445    7.3713481    0.0000000  0.00    0.0003711    0.0005448   -0.0000000
 H    7.5599775    9.4790392    0.0000000  0.00   -0.0001348    0.0002849   -0.0000000
 H    5.1266427    9.4312031    0.0000000  0.00   -0.0004585    0.0001611   -0.0000000
 H    8.9222985    4.9451800    0.0000000  0.00   -0.0008477   -0.0001284   -0.0000000
 H    9.0173795    2.5183592    0.0000000  0.00   -0.0001326   -0.0006934   -0.0000000
 H    3.2355234    9.3422233    0.0000000  0.00   -0.0004248   -0.0003307   -0.0000000
 H    0.8642795    9.2406947    0.0000000  0.00   -0.0003562   -0.0002181   -0.0000000
 C   -7.1146982   -6.1007792    0.0000000  0.00    0.0001041    0.0004248   -0.0000000
 C   -5.6804834   -6.0623744    0.0000000  0.00   -0.0000383   -0.0001245   -0.0000000
 C   -7.7715469   -7.3514302    0.0000000  0.00   -0.0000877   -0.0002567   -0.0000000
 C   -4.9571239   -7.2732162    0.0000000  0.00    0.0004554    0.0004236   -0.0000000
 C   -7.0482246   -8.5236224    0.0000000  0.00    0.0000091    0.0004334   -0.0000000
 C   -5.6571475   -8.4907768    0.0000000  0.00    0.0000214   -0.0004618   -0.0000000
 C   -7.2012912   -3.6665368    0.0000000  0.00    0.0004913    0.0004362   -0.0000000
 C   -5.7571242   -3.6337195    0.0000000  0.00   -0.0002108   -0.0002205   -0.0000000
 C   -7.8382404   -4.9064293    0.0000000  0.00    0.0003455    0.0001047   -0.0000000
 C   -4.9990367   -4.8133741    0.0000000  0.00    0.0001773    0.0001432   -0.0000000
 C   -7.2985037   -1.2295731    0.0000000  0.00    0.0000624   -0.0000200   -0.0000000
 C   -5.8577565   -1.2215982    0.0000000  0.00   -0.0004594    0.0000656   -0.0000000
 C   -7.9339214   -2.4686768    0.0000000  0.00   -0.0000141   -0.0000900   -0.0000000
 C   -5.0871178   -2.3962438    0.0000000  0.00    0.0000228   -0.0001918   -0.0000000
 C   -3.5622698   -4.7441925    0.0000000  0.00   -0.0001660   -0.0000968   -0.0000000
 C   -2.8339236   -5.9478192    0.0000000  0.00   -0.0002568    0.0005389   -0.0000000
 C   -3.5160225   -7.2033359    0.0000000  0.00   -0.0003410    0.0004534   -0.0000000
 C   -3.6476806   -2.3445843    0.0000000  0.00    0.0001776   -0.0002038   -0.0000000
 C   -2.8632285   -3.5040410    0.0000000  0.00    0.0000200    0.0002202   -0.0000000
 C   -2.9904998   -1.1217599    0.0000000  0.00    0.0000706   -0.0003783   -0.0000000
 C   -1.4157933   -5.8595785    0.0000000  0.00    0.0002277   -0.0002149   -0.0000000
 C   -0.7112813   -7.0848840    0.0000000  0.00   -0.0001021    0.0006396   -0.0000000
 C   -2.7598538   -8.3735572    0.0000000  0.00    0.0001916   -0.0001741   -0.0000000
 C   -1.4024312   -8.3088329    0.0000000  0.00    0.0000378   -0.0001699   -0.0000000
 C   -1.4233921   -3.3467005    0.0000000  0.00   -0.0000862    0.0000535   -0.0000000
 C   -0.7128014   -4.5833732    0.0000000  0.00   -0.0000875   -0.0000866   -0.0000000
 C   -1.5843780   -0.7862423    0.0000000  0.00   -0.0001755    0.0003722   -0.0000000
 C   -0.7268721   -1.9976549    0.0000000  0.00    0.0004853   -0.0002676   -0.0000000
 H   -8.8554445   -7.3713481    0.0000000  0.00   -0.0003711   -0.0005448   -0.0000000
 H   -7.5599775   -9.4790392    0.0000000  0.00    0.0001348   -0.0002849   -0.0000000
 H   -5.1266427   -9.4312031    0.0000000  0.00    0.0004585   -0.0001611   -0.0000000
 H   -8.9222985   -4.9451800    0.0000000  0.00    0.0008477    0.0001284   -0.0000000
 H   -9.0173795   -2.5183592    0.0000000  0.00    0.0001326    0.0006934   -0.0000000
 H   -3.2355234   -9.3422233    0.0000000  0.00    0.0004248    0.0003307   -0.0000000
 H   -0.8642795   -9.2406947    0.0000000  0.00    0.0003562    0.0002181   -0.0000000
