148
 Energy =   -4513.2515153600
 C    7.1101234   -6.1033805    0.0000000  0.00   -0.0014301   -0.0010230   -0.0000000
 C    5.6784846   -6.0623314    0.0000000  0.00    0.0013978    0.0001108   -0.0000000
 C    7.7698425   -7.3490275    0.0000000  0.00    0.0022313    0.0009395   -0.0000000
 C    4.9540724   -7.2712334    0.0000000  0.00   -0.0008855   -0.0010013   -0.0000000
 C    7.0452342   -8.5207258    0.0000000  0.00   -0.0017483   -0.0014029   -0.0000000
 C    5.6554784   -8.4870062    0.0000000  0.00    0.0011567    0.0004535   -0.0000000
 C    7.1945402   -3.6677776    0.0000000  0.00   -0.0002020   -0.0004970   -0.0000000
 C    5.7502853   -3.6315646    0.0000000  0.00    0.0015939   -0.0014559   -0.0000000
 C    7.8349796   -4.9037784    0.0000000  0.00    0.0002066    0.0013312   -0.0000000
 C    4.9937222   -4.8130036    0.0000000  0.00   -0.0012369    0.0015623   -0.0000000
 C    7.2827824   -1.2294195    0.0000000  0.00    0.0024134    0.0017225   -0.0000000
 C    5.8468712   -1.2206166    0.0000000  0.00    0.0001750   -0.0028031   -0.0000000
 C    7.9286060   -2.4676464    0.0000000  0.00   -0.0009445    0.0001119   -0.0000000
 C    5.0788942   -2.3978520    0.0000000  0.00   -0.0014593    0.0023738   -0.0000000
 C    7.9653234    0.0000000    0.0000000  0.00   -0.0025751   -0.0000000   -0.0000000
 C    5.1696677    0.0000000    0.0000000  0.00    0.0000524   -0.0000000   -0.0000000
 C    3.5604626   -4.7475489    0.0000000  0.00    0.0005899   -0.0013261   -0.0000000
 C    2.8330386   -5.9511497    0.0000000  0.00   -0.0011504   -0.0001521   -0.0000000
 C    3.5113683   -7.2043387    0.0000000  0.00   -0.0002526    0.0014210   -0.0000000
 C    3.6424673   -2.3501610    0.0000000  0.00    0.0027348   -0.0031368   -0.0000000
 C    2.8620735   -3.5032671    0.0000000  0.00   -0.0023287    0.0002686   -0.0000000
 C    3.7781374    0.0000000    0.0000000  0.00    0.0041361   -0.0000000   -0.0000000
 C    2.9791524   -1.1266970    0.0000000  0.00   -0.0010833    0.0026167   -0.0000000
 C    1.4134894   -5.8615612    0.0000000  0.00   -0.0010460    0.0008841   -0.0000000
 C    0.7102692   -7.0860959    0.0000000  0.00   -0.0002361    0.0000177   -0.0000000
 C    2.7547160   -8.3767749    0.0000000  0.00   -0.0000860   -0.0012896   -0.0000000
 C    1.3997604   -8.3136389    0.0000000  0.00    0.0005294    0.0025499   -0.0000000
 C    1.4224355   -3.3404370    0.0000000  0.00   -0.0012077   -0.0019705   -0.0000000
 C    0.7099413   -4.5873133    0.0000000  0.00    0.0032072   -0.0003230   -0.0000000
 C    1.5822126   -0.8067404    0.0000000  0.00   -0.0000052   -0.0006831   -0.0000000
 C    0.7353255   -2.0032496    0.0000000  0.00   -0.0006475   -0.0017029   -0.0000000
 H    8.8557058   -7.3673824    0.0000000  0.00    0.0001119   -0.0009456   -0.0000000
 H    7.5544056   -9.4801610    0.0000000  0.00   -0.0000279   -0.0009775   -0.0000000
 H    5.1223859   -9.4323990    0.0000000  0.00    0.0007426   -0.0010402   -0.0000000
 H    8.9196970   -4.9423696    0.0000000  0.00   -0.0004792   -0.0001890   -0.0000000
 H    9.0123051   -2.5134199    0.0000000  0.00   -0.0016673    0.0001318   -0.0000000
 H    9.0499372    0.0000000    0.0000000  0.00    0.0012460   -0.0000000   -0.0000000
 H    3.2204444   -9.3596896    0.0000000  0.00   -0.0002216   -0.0007654   -0.0000000
 H    0.8683455   -9.2623034    0.0000000  0.00    0.0022684    0.0008864   -0.0000000
 C   -7.1101234    6.1033805    0.0000000  0.00    0.0014301    0.0010230   -0.0000000
 C   -5.6784846    6.0623314    0.0000000  0.00   -0.0013978   -0.0001108   -0.0000000
 C   -7.7698425    7.3490275    0.0000000  0.00   -0.0022313   -0.0009395   -0.0000000
 C   -4.9540724    7.2712334    0.0000000  0.00    0.0008855    0.0010013   -0.0000000
 C   -7.0452342    8.5207258    0.0000000  0.00    0.0017483    0.0014029   -0.0000000
 C   -5.6554784    8.4870062    0.0000000  0.00   -0.0011567   -0.0004535   -0.0000000
 C   -7.1945402    3.6677776    0.0000000  0.00    0.0002020    0.0004970   -0.0000000
 C   -5.7502853    3.6315646    0.0000000  0.00   -0.0015939    0.0014559   -0.0000000
 C   -7.8349796    4.9037784    0.0000000  0.00   -0.0002066   -0.0013312   -0.0000000
 C   -4.9937222    4.8130036    0.0000000  0.00    0.0012369   -0.0015623   -0.0000000
 C   -7.2827824    1.2294195    0.0000000  0.00   -0.0024134   -0.0017225   -0.0000000
 C   -5.8468712    1.2206166    0.0000000  0.00   -0.0001750    0.0028031   -0.0000000
 C   -7.9286060    2.4676464    0.0000000  0.00    0.0009445   -0.0001119   -0.0000000
 C   -5.0788942    2.3978520    0.0000000  0.00    0.0014593   -0.0023738   -0.0000000
 C   -7.9653234    0.0000000    0.0000000  0.00    0.0025751   -0.0000000   -0.0000000
 C   -5.1696677    0.0000000    0.0000000  0.00   -0.0000524   -0.0000000   -0.0000000
 C   -3.5604626    4.7475489    0.0000000  0.00   -0.0005899    0.0013261   -0.0000000
 C   -2.8330386    5.9511497    0.0000000  0.00    0.0011504    0.0001521   -0.0000000
 C   -3.5113683    7.2043387    0.0000000  0.00    0.0002526   -0.0014210   -0.0000000
 C   -3.6424673    2.3501610    0.0000000  0.00   -0.0027348    0.0031368   -0.0000000
 C   -2.8620735    3.5032671    0.0000000  0.00    0.0023287   -0.0002686   -0.0000000
 C   -3.7781374    0.0000000    0.0000000  0.00   -0.0041361   -0.0000000   -0.0000000
 C   -2.9791524    1.1266970    0.0000000  0.00    0.0010833   -0.0026167   -0.0000000
 C   -1.4134894    5.8615612    0.0000000  0.00    0.0010460   -0.0008841   -0.0000000
 C   -0.7102692    7.0860959    0.0000000  0.00    0.0002361   -0.0000177   -0.0000000
 C   -2.7547160    8.3767749    0.0000000  0.00    0.0000860    0.0012896   -0.0000000
 C   -1.3997604    8.3136389    0.0000000  0.00   -0.0005294   -0.0025499   -0.0000000
 C   -1.4224355    3.3404370    0.0000000  0.00    0.0012077    0.0019705   -0.0000000
 C   -0.7099413    4.5873133    0.0000000  0.00   -0.0032072    0.0003230   -0.0000000
 C   -1.5822126    0.8067404    0.0000000  0.00    0.0000052    0.0006831   -0.0000000
 C   -0.7353255    2.0032496    0.0000000  0.00    0.0006475    0.0017029   -0.0000000
 H   -8.8557058    7.3673824    0.0000000  0.00   -0.0001119    0.0009456   -0.0000000
 H   -7.5544056    9.4801610    0.0000000  0.00    0.0000279    0.0009775   -0.0000000
 H   -5.1223859    9.4323990    0.0000000  0.00   -0.0007426    0.0010402   -0.0000000
 H   -8.9196970    4.9423696    0.0000000  0.00    0.0004792    0.0001890   -0.0000000
 H   -9.0123051    2.5134199    0.0000000  0.00    0.0016673   -0.0001318   -0.0000000
 H   -9.0499372    0.0000000    0.0000000  0.00   -0.0012460   -0.0000000   -0.0000000
 H   -3.2204444    9.3596896    0.0000000  0.00    0.0002216    0.0007654   -0.0000000
 H   -0.8683455    9.2623034    0.0000000  0.00   -0.0022684   -0.0008864   -0.0000000
 C    7.1101234    6.1033805    0.0000000  0.00   -0.0014301    0.0010230   -0.0000000
 C    5.6784846    6.0623314    0.0000000  0.00    0.0013978   -0.0001108   -0.0000000
 C    7.7698425    7.3490275    0.0000000  0.00    0.0022313   -0.0009395   -0.0000000
 C    4.9540724    7.2712334    0.0000000  0.00   -0.0008855    0.0010013   -0.0000000
 C    7.0452342    8.5207258    0.0000000  0.00   -0.0017483    0.0014029   -0.0000000
 C    5.6554784    8.4870062    0.0000000  0.00    0.0011567   -0.0004535   -0.0000000
 C    7.1945402    3.6677776    0.0000000  0.00   -0.0002020    0.0004970   -0.0000000
 C    5.7502853    3.6315646    0.0000000  0.00    0.0015939    0.0014559   -0.0000000
 C    7.8349796    4.9037784    0.0000000  0.00    0.0002066   -0.0013312   -0.0000000
 C    4.9937222    4.8130036    0.0000000  0.00   -0.0012369   -0.0015623   -0.0000000
 C    7.2827824    1.2294195    0.0000000  0.00    0.0024134   -0.0017225   -0.0000000
 C    5.8468712    1.2206166    0.0000000  0.00    0.0001750    0.0028031   -0.0000000
 C    7.9286060    2.4676464    0.0000000  0.00   -0.0009445   -0.0001119   -0.0000000
 C    5.0788942    2.3978520    0.0000000  0.00   -0.0014593   -0.0023738   -0.0000000
 C    3.5604626    4.7475489    0.0000000  0.00    0.0005899    0.0013261   -0.0000000
 C    2.8330386    5.9511497    0.0000000  0.00   -0.0011504    0.0001521   -0.0000000
 C    3.5113683    7.2043387    0.0000000  0.00   -0.0002526   -0.0014210   -0.0000000
 C    3.6424673    2.3501610    0.0000000  0.00    0.0027348    0.0031368   -0.0000000
 C    2.8620735    3.5032671    0.0000000  0.00   -0.0023287   -0.0002686   -0.0000000
 C    2.9791524    1.1266970    0.0000000  0.00   -0.0010833   -0.0026167   -0.0000000
 C    1.4134894    5.8615612    0.0000000  0.00   -0.0010460   -0.0008841   -0.0000000
 C    0.7102692    7.0860959    0.0000000  0.00   -0.0002361   -0.0000177   -0.0000000
 C    2.7547160    8.3767749    0.0000000  0.00   -0.0000860    0.0012896   -0.0000000
 C    1.3997604    8.3136389    0.0000000  0.00    0.0005294   -0.0025499   -0.0000000
 C    1.4224355    3.3404370    0.0000000  0.00   -0.0012077    0.0019705   -0.0000000
 C    0.7099413    4.5873133    0.0000000  0.00    0.0032072    0.0003230   -0.0000000
 C    1.5822126    0.8067404    0.0000000  0.00   -0.0000052    0.0006831   -0.0000000
 C    0.7353255    2.0032496    0.0000000  0.00   -0.0006475    0.0017029   -0.0000000
 H    8.8557058    7.3673824    0.0000000  0.00    0.0001119    0.0009456   -0.0000000
 H    7.5544056    9.4801610    0.0000000  0.00   -0.0000279    0.0009775   -0.0000000
 H    5.1223859    9.4323990    0.0000000  0.00    0.0007426    0.0010402   -0.0000000
 H    8.9196970    4.9423696    0.0000000  0.00   -0.0004792    0.0001890   -0.0000000
 H    9.0123051    2.5134199    0.0000000  0.00   -0.0016673   -0.0001318   -0.0000000
 H    3.2204444    9.3596896    0.0000000  0.00   -0.0002216    0.0007654   -0.0000000
 H    0.8683455    9.2623034    0.0000000  0.00    0.0022684   -0.0008864   -0.0000000
 C   -7.1101234   -6.1033805    0.0000000  0.00    0.0014301   -0.0010230   -0.0000000
 C   -5.6784846   -6.0623314    0.0000000  0.00   -0.0013978    0.0001108   -0.0000000
 C   -7.7698425   -7.3490275    0.0000000  0.00   -0.0022313    0.0009395   -0.0000000
 C   -4.9540724   -7.2712334    0.0000000  0.00    0.0008855   -0.0010013   -0.0000000
 C   -7.0452342   -8.5207258    0.0000000  0.00    0.0017483   -0.0014029   -0.0000000
 C   -5.6554784   -8.4870062    0.0000000  0.00   -0.0011567    0.0004535   -0.0000000
 C   -7.1945402   -3.6677776    0.0000000  0.00    0.0002020   -0.0004970   -0.0000000
 C   -5.7502853   -3.6315646    0.0000000  0.00   -0.0015939   -0.0014559   -0.0000000
 C   -7.8349796   -4.9037784    0.0000000  0.00   -0.0002066    0.0013312   -0.0000000
 C   -4.9937222   -4.8130036    0.0000000  0.00    0.0012369    0.0015623   -0.0000000
 C   -7.2827824   -1.2294195    0.0000000  0.00   -0.0024134    0.0017225   -0.0000000
 C   -5.8468712   -1.2206166    0.0000000  0.00   -0.0001750   -0.0028031   -0.0000000
 C   -7.9286060   -2.4676464    0.0000000  0.00    0.0009445    0.0001119   -0.0000000
 C   -5.0788942   -2.3978520    0.0000000  0.00    0.0014593    0.0023738   -0.0000000
 C   -3.5604626   -4.7475489    0.0000000  0.00   -0.0005899   -0.0013261   -0.0000000
 C   -2.8330386   -5.9511497    0.0000000  0.00    0.0011504   -0.0001521   -0.0000000
 C   -3.5113683   -7.2043387    0.0000000  0.00    0.0002526    0.0014210   -0.0000000
 C   -3.6424673   -2.3501610    0.0000000  0.00   -0.0027348   -0.0031368   -0.0000000
 C   -2.8620735   -3.5032671    0.0000000  0.00    0.0023287    0.0002686   -0.0000000
 C   -2.9791524   -1.1266970    0.0000000  0.00    0.0010833    0.0026167   -0.0000000
 C   -1.4134894   -5.8615612    0.0000000  0.00    0.0010460    0.0008841   -0.0000000
 C   -0.7102692   -7.0860959    0.0000000  0.00    0.0002361    0.0000177   -0.0000000
 C   -2.7547160   -8.3767749    0.0000000  0.00    0.0000860   -0.0012896   -0.0000000
 C   -1.3997604   -8.3136389    0.0000000  0.00   -0.0005294    0.0025499   -0.0000000
 C   -1.4224355   -3.3404370    0.0000000  0.00    0.0012077   -0.0019705   -0.0000000
 C   -0.7099413   -4.5873133    0.0000000  0.00   -0.0032072   -0.0003230   -0.0000000
 C   -1.5822126   -0.8067404    0.0000000  0.00    0.0000052   -0.0006831   -0.0000000
 C   -0.7353255   -2.0032496    0.0000000  0.00    0.0006475   -0.0017029   -0.0000000
 H   -8.8557058   -7.3673824    0.0000000  0.00   -0.0001119   -0.0009456   -0.0000000
 H   -7.5544056   -9.4801610    0.0000000  0.00    0.0000279   -0.0009775   -0.0000000
 H   -5.1223859   -9.4323990    0.0000000  0.00   -0.0007426   -0.0010402   -0.0000000
 H   -8.9196970   -4.9423696    0.0000000  0.00    0.0004792   -0.0001890   -0.0000000
 H   -9.0123051   -2.5134199    0.0000000  0.00    0.0016673    0.0001318   -0.0000000
 H   -3.2204444   -9.3596896    0.0000000  0.00    0.0002216   -0.0007654   -0.0000000
 H   -0.8683455   -9.2623034    0.0000000  0.00   -0.0022684    0.0008864   -0.0000000
